  Title="2D heat conduction problem"
  Variables="x","y","T"
  ZONE I=101       J=101      F=POINT
        0.00000            0.00000            402.31250
        0.00101            0.00000            418.94409
        0.00303            0.00000            435.26968
        0.00505            0.00000            448.05688
        0.00707            0.00000            458.70416
        0.00909            0.00000            467.85199
        0.01111            0.00000            475.86084
        0.01313            0.00000            482.96088
        0.01515            0.00000            489.31134
        0.01717            0.00000            495.02890
        0.01919            0.00000            500.20251
        0.02121            0.00000            504.90265
        0.02323            0.00000            509.18588
        0.02525            0.00000            513.09924
        0.02727            0.00000            516.68213
        0.02929            0.00000            519.96783
        0.03131            0.00000            522.98541
        0.03333            0.00000            525.75995
        0.03535            0.00000            528.31384
        0.03737            0.00000            530.66644
        0.03939            0.00000            532.83575
        0.04141            0.00000            534.83746
        0.04343            0.00000            536.68610
        0.04545            0.00000            538.39478
        0.04747            0.00000            539.97546
        0.04949            0.00000            541.43933
        0.05152            0.00000            542.79651
        0.05354            0.00000            544.05670
        0.05556            0.00000            545.22852
        0.05758            0.00000            546.32043
        0.05960            0.00000            547.34039
        0.06162            0.00000            548.29547
        0.06364            0.00000            549.19250
        0.06566            0.00000            550.03827
        0.06768            0.00000            550.83875
        0.06970            0.00000            551.59991
        0.07172            0.00000            552.32727
        0.07374            0.00000            553.02625
        0.07576            0.00000            553.70184
        0.07778            0.00000            554.35889
        0.07980            0.00000            555.00220
        0.08182            0.00000            555.63611
        0.08384            0.00000            556.26489
        0.08586            0.00000            556.89264
        0.08788            0.00000            557.52344
        0.08990            0.00000            558.16107
        0.09192            0.00000            558.80908
        0.09394            0.00000            559.47131
        0.09596            0.00000            560.15094
        0.09798            0.00000            560.85138
        0.10000            0.00000            561.57574
        0.10202            0.00000            562.32758
        0.10404            0.00000            563.10950
        0.10606            0.00000            563.92450
        0.10808            0.00000            564.77563
        0.11010            0.00000            565.66547
        0.11212            0.00000            566.59656
        0.11414            0.00000            567.57166
        0.11616            0.00000            568.59332
        0.11818            0.00000            569.66400
        0.12020            0.00000            570.78613
        0.12222            0.00000            571.96173
        0.12424            0.00000            573.19342
        0.12626            0.00000            574.48297
        0.12828            0.00000            575.83258
        0.13030            0.00000            577.24396
        0.13232            0.00000            578.71948
        0.13434            0.00000            580.26086
        0.13636            0.00000            581.86969
        0.13838            0.00000            583.54791
        0.14040            0.00000            585.29730
        0.14242            0.00000            587.11938
        0.14444            0.00000            589.01569
        0.14646            0.00000            590.98755
        0.14848            0.00000            593.03638
        0.15050            0.00000            595.16345
        0.15253            0.00000            597.37012
        0.15455            0.00000            599.65735
        0.15657            0.00000            602.02631
        0.15859            0.00000            604.47760
        0.16061            0.00000            607.01227
        0.16263            0.00000            609.63104
        0.16465            0.00000            612.33472
        0.16667            0.00000            615.12347
        0.16869            0.00000            617.99817
        0.17071            0.00000            620.95886
        0.17273            0.00000            624.00598
        0.17475            0.00000            627.13940
        0.17677            0.00000            630.35944
        0.17879            0.00000            633.66571
        0.18081            0.00000            637.05804
        0.18283            0.00000            640.53638
        0.18485            0.00000            644.10004
        0.18687            0.00000            647.74854
        0.18889            0.00000            651.48138
        0.19091            0.00000            655.29742
        0.19293            0.00000            659.19629
        0.19495            0.00000            663.17633
        0.19697            0.00000            667.23621
        0.19899            0.00000            671.37390
        0.20000            0.00000            673.47894
        0.00000            0.00051            400.00000
        0.00101            0.00051            416.70886
        0.00303            0.00051            433.11032
        0.00505            0.00051            445.95691
        0.00707            0.00051            456.65369
        0.00909            0.00051            465.84399
        0.01111            0.00051            473.89008
        0.01313            0.00051            481.02310
        0.01515            0.00051            487.40308
        0.01717            0.00051            493.14719
        0.01919            0.00051            498.34485
        0.02121            0.00051            503.06680
        0.02323            0.00051            507.36996
        0.02525            0.00051            511.30154
        0.02727            0.00051            514.90100
        0.02929            0.00051            518.20203
        0.03131            0.00051            521.23358
        0.03333            0.00051            524.02106
        0.03535            0.00051            526.58679
        0.03737            0.00051            528.95032
        0.03939            0.00051            531.12970
        0.04141            0.00051            533.14075
        0.04343            0.00051            534.99792
        0.04545            0.00051            536.71454
        0.04747            0.00051            538.30261
        0.04949            0.00051            539.77325
        0.05152            0.00051            541.13672
        0.05354            0.00051            542.40277
        0.05556            0.00051            543.58008
        0.05758            0.00051            544.67706
        0.05960            0.00051            545.70172
        0.06162            0.00051            546.66125
        0.06364            0.00051            547.56244
        0.06566            0.00051            548.41217
        0.06768            0.00051            549.21637
        0.06970            0.00051            549.98108
        0.07172            0.00051            550.71179
        0.07374            0.00051            551.41400
        0.07576            0.00051            552.09277
        0.07778            0.00051            552.75287
        0.07980            0.00051            553.39917
        0.08182            0.00051            554.03601
        0.08384            0.00051            554.66772
        0.08586            0.00051            555.29840
        0.08788            0.00051            555.93213
        0.08990            0.00051            556.57269
        0.09192            0.00051            557.22369
        0.09394            0.00051            557.88904
        0.09596            0.00051            558.57184
        0.09798            0.00051            559.27551
        0.10000            0.00051            560.00323
        0.10202            0.00051            560.75854
        0.10404            0.00051            561.54413
        0.10606            0.00051            562.36292
        0.10808            0.00051            563.21802
        0.11010            0.00051            564.11194
        0.11212            0.00051            565.04736
        0.11414            0.00051            566.02698
        0.11616            0.00051            567.05341
        0.11818            0.00051            568.12909
        0.12020            0.00051            569.25641
        0.12222            0.00051            570.43750
        0.12424            0.00051            571.67487
        0.12626            0.00051            572.97046
        0.12828            0.00051            574.32629
        0.13030            0.00051            575.74426
        0.13232            0.00051            577.22662
        0.13434            0.00051            578.77515
        0.13636            0.00051            580.39148
        0.13838            0.00051            582.07751
        0.14040            0.00051            583.83502
        0.14242            0.00051            585.66559
        0.14444            0.00051            587.57068
        0.14646            0.00051            589.55170
        0.14848            0.00051            591.61005
        0.15050            0.00051            593.74701
        0.15253            0.00051            595.96393
        0.15455            0.00051            598.26178
        0.15657            0.00051            600.64172
        0.15859            0.00051            603.10443
        0.16061            0.00051            605.65088
        0.16263            0.00051            608.28180
        0.16465            0.00051            610.99805
        0.16667            0.00051            613.79974
        0.16869            0.00051            616.68781
        0.17071            0.00051            619.66229
        0.17273            0.00051            622.72357
        0.17475            0.00051            625.87152
        0.17677            0.00051            629.10651
        0.17879            0.00051            632.42816
        0.18081            0.00051            635.83624
        0.18283            0.00051            639.33075
        0.18485            0.00051            642.91095
        0.18687            0.00051            646.57642
        0.18889            0.00051            650.32660
        0.19091            0.00051            654.16040
        0.19293            0.00051            658.07739
        0.19495            0.00051            662.07593
        0.19697            0.00051            666.15466
        0.19899            0.00051            670.31158
        0.20000            0.00051            672.42639
        0.00000            0.00152            400.00000
        0.00101            0.00152            412.23929
        0.00303            0.00152            428.79419
        0.00505            0.00152            441.76129
        0.00707            0.00152            452.55869
        0.00909            0.00152            461.83569
        0.01111            0.00152            469.95789
        0.01313            0.00152            477.15854
        0.01515            0.00152            483.59918
        0.01717            0.00152            489.39801
        0.01919            0.00152            494.64545
        0.02121            0.00152            499.41269
        0.02323            0.00152            503.75726
        0.02525            0.00152            507.72675
        0.02727            0.00152            511.36108
        0.02929            0.00152            514.69415
        0.03131            0.00152            517.75525
        0.03333            0.00152            520.57001
        0.03535            0.00152            523.16095
        0.03737            0.00152            525.54785
        0.03939            0.00152            527.74878
        0.04141            0.00152            529.77985
        0.04343            0.00152            531.65558
        0.04545            0.00152            533.38940
        0.04747            0.00152            534.99347
        0.04949            0.00152            536.47906
        0.05152            0.00152            537.85645
        0.05354            0.00152            539.13531
        0.05556            0.00152            540.32477
        0.05758            0.00152            541.43311
        0.05960            0.00152            542.46832
        0.06162            0.00152            543.43781
        0.06364            0.00152            544.34857
        0.06566            0.00152            545.20715
        0.06768            0.00152            546.01990
        0.06970            0.00152            546.79260
        0.07172            0.00152            547.53113
        0.07374            0.00152            548.24078
        0.07576            0.00152            548.92676
        0.07778            0.00152            549.59387
        0.07980            0.00152            550.24701
        0.08182            0.00152            550.89050
        0.08384            0.00152            551.52893
        0.08586            0.00152            552.16620
        0.08788            0.00152            552.80658
        0.08990            0.00152            553.45380
        0.09192            0.00152            554.11157
        0.09394            0.00152            554.78375
        0.09596            0.00152            555.47357
        0.09798            0.00152            556.18433
        0.10000            0.00152            556.91943
        0.10202            0.00152            557.68225
        0.10404            0.00152            558.47577
        0.10606            0.00152            559.30267
        0.10808            0.00152            560.16614
        0.11010            0.00152            561.06885
        0.11212            0.00152            562.01337
        0.11414            0.00152            563.00250
        0.11616            0.00152            564.03894
        0.11818            0.00152            565.12488
        0.12020            0.00152            566.26300
        0.12222            0.00152            567.45538
        0.12424            0.00152            568.70453
        0.12626            0.00152            570.01245
        0.12828            0.00152            571.38110
        0.13030            0.00152            572.81244
        0.13232            0.00152            574.30865
        0.13434            0.00152            575.87170
        0.13636            0.00152            577.50311
        0.13838            0.00152            579.20490
        0.14040            0.00152            580.97882
        0.14242            0.00152            582.82642
        0.14444            0.00152            584.74915
        0.14646            0.00152            586.74854
        0.14848            0.00152            588.82587
        0.15050            0.00152            590.98254
        0.15253            0.00152            593.21985
        0.15455            0.00152            595.53888
        0.15657            0.00152            597.94067
        0.15859            0.00152            600.42603
        0.16061            0.00152            602.99573
        0.16263            0.00152            605.65076
        0.16465            0.00152            608.39178
        0.16667            0.00152            611.21906
        0.16869            0.00152            614.13342
        0.17071            0.00152            617.13507
        0.17273            0.00152            620.22412
        0.17475            0.00152            623.40076
        0.17677            0.00152            626.66510
        0.17879            0.00152            630.01691
        0.18081            0.00152            633.45599
        0.18283            0.00152            636.98206
        0.18485            0.00152            640.59467
        0.18687            0.00152            644.29327
        0.18889            0.00152            648.07733
        0.19091            0.00152            651.94586
        0.19293            0.00152            655.89813
        0.19495            0.00152            659.93268
        0.19697            0.00152            664.04803
        0.19899            0.00152            668.24225
        0.20000            0.00152            670.37610
        0.00000            0.00253            400.00000
        0.00101            0.00253            409.75156
        0.00303            0.00253            425.37756
        0.00505            0.00253            438.11243
        0.00707            0.00253            448.84988
        0.00909            0.00253            458.12399
        0.01111            0.00253            466.26566
        0.01313            0.00253            473.49527
        0.01515            0.00253            479.96863
        0.01717            0.00253            485.80139
        0.01919            0.00253            491.08240
        0.02121            0.00253            495.88211
        0.02323            0.00253            500.25787
        0.02525            0.00253            504.25702
        0.02727            0.00253            507.91928
        0.02929            0.00253            511.27856
        0.03131            0.00253            514.36444
        0.03333            0.00253            517.20239
        0.03535            0.00253            519.81506
        0.03737            0.00253            522.22235
        0.03939            0.00253            524.44220
        0.04141            0.00253            526.49103
        0.04343            0.00253            528.38348
        0.04545            0.00253            530.13281
        0.04747            0.00253            531.75146
        0.04949            0.00253            533.25061
        0.05152            0.00253            534.64081
        0.05354            0.00253            535.93164
        0.05556            0.00253            537.13226
        0.05758            0.00253            538.25128
        0.05960            0.00253            539.29639
        0.06162            0.00253            540.27527
        0.06364            0.00253            541.19489
        0.06566            0.00253            542.06195
        0.06768            0.00253            542.88275
        0.06970            0.00253            543.66315
        0.07172            0.00253            544.40912
        0.07374            0.00253            545.12592
        0.07576            0.00253            545.81879
        0.07778            0.00253            546.49255
        0.07980            0.00253            547.15234
        0.08182            0.00253            547.80237
        0.08384            0.00253            548.44727
        0.08586            0.00253            549.09094
        0.08788            0.00253            549.73773
        0.08990            0.00253            550.39142
        0.09192            0.00253            551.05585
        0.09394            0.00253            551.73468
        0.09596            0.00253            552.43127
        0.09798            0.00253            553.14905
        0.10000            0.00253            553.89136
        0.10202            0.00253            554.66162
        0.10404            0.00253            555.46277
        0.10606            0.00253            556.29761
        0.10808            0.00253            557.16937
        0.11010            0.00253            558.08069
        0.11212            0.00253            559.03418
        0.11414            0.00253            560.03265
        0.11616            0.00253            561.07880
        0.11818            0.00253            562.17493
        0.12020            0.00253            563.32361
        0.12222            0.00253            564.52716
        0.12424            0.00253            565.78778
        0.12626            0.00253            567.10773
        0.12828            0.00253            568.48889
        0.13030            0.00253            569.93341
        0.13232            0.00253            571.44336
        0.13434            0.00253            573.02051
        0.13636            0.00253            574.66687
        0.13838            0.00253            576.38416
        0.14040            0.00253            578.17413
        0.14242            0.00253            580.03833
        0.14444            0.00253            581.97845
        0.14646            0.00253            583.99585
        0.14848            0.00253            586.09186
        0.15050            0.00253            588.26788
        0.15253            0.00253            590.52527
        0.15455            0.00253            592.86499
        0.15657            0.00253            595.28821
        0.15859            0.00253            597.79572
        0.16061            0.00253            600.38831
        0.16263            0.00253            603.06702
        0.16465            0.00253            605.83246
        0.16667            0.00253            608.68481
        0.16869            0.00253            611.62506
        0.17071            0.00253            614.65326
        0.17273            0.00253            617.76971
        0.17475            0.00253            620.97455
        0.17677            0.00253            624.26764
        0.17879            0.00253            627.64899
        0.18081            0.00253            631.11847
        0.18283            0.00253            634.67560
        0.18485            0.00253            638.32001
        0.18687            0.00253            642.05133
        0.18889            0.00253            645.86853
        0.19091            0.00253            649.77112
        0.19293            0.00253            653.75806
        0.19495            0.00253            657.82794
        0.19697            0.00253            661.97943
        0.19899            0.00253            666.21021
        0.20000            0.00253            668.36279
        0.00000            0.00354            400.00000
        0.00101            0.00354            408.23410
        0.00303            0.00354            422.68652
        0.00505            0.00354            434.96750
        0.00707            0.00354            445.51321
        0.00909            0.00354            454.70322
        0.01111            0.00354            462.81097
        0.01313            0.00354            470.03229
        0.01515            0.00354            476.51132
        0.01717            0.00354            482.35739
        0.01919            0.00354            487.65601
        0.02121            0.00354            492.47568
        0.02323            0.00354            496.87234
        0.02525            0.00354            500.89276
        0.02727            0.00354            504.57605
        0.02929            0.00354            507.95590
        0.03131            0.00354            511.06171
        0.03333            0.00354            513.91876
        0.03535            0.00354            516.54956
        0.03737            0.00354            518.97424
        0.03939            0.00354            521.21057
        0.04141            0.00354            523.27502
        0.04343            0.00354            525.18207
        0.04545            0.00354            526.94537
        0.04747            0.00354            528.57703
        0.04949            0.00354            530.08850
        0.05152            0.00354            531.49030
        0.05354            0.00354            532.79224
        0.05556            0.00354            534.00323
        0.05758            0.00354            535.13196
        0.05960            0.00354            536.18634
        0.06162            0.00354            537.17401
        0.06364            0.00354            538.10199
        0.06566            0.00354            538.97699
        0.06768            0.00354            539.80548
        0.06970            0.00354            540.59314
        0.07172            0.00354            541.34613
        0.07374            0.00354            542.06976
        0.07576            0.00354            542.76923
        0.07778            0.00354            543.44958
        0.07980            0.00354            544.11572
        0.08182            0.00354            544.77209
        0.08384            0.00354            545.42316
        0.08586            0.00354            546.07306
        0.08788            0.00354            546.72607
        0.08990            0.00354            547.38605
        0.09192            0.00354            548.05688
        0.09394            0.00354            548.74219
        0.09596            0.00354            549.44550
        0.09798            0.00354            550.17010
        0.10000            0.00354            550.91956
        0.10202            0.00354            551.69702
        0.10404            0.00354            552.50555
        0.10606            0.00354            553.34827
        0.10808            0.00354            554.22809
        0.11010            0.00354            555.14783
        0.11212            0.00354            556.11017
        0.11414            0.00354            557.11780
        0.11616            0.00354            558.17340
        0.11818            0.00354            559.27960
        0.12020            0.00354            560.43860
        0.12222            0.00354            561.65308
        0.12424            0.00354            562.92517
        0.12626            0.00354            564.25690
        0.12828            0.00354            565.65039
        0.13030            0.00354            567.10773
        0.13232            0.00354            568.63110
        0.13434            0.00354            570.22229
        0.13636            0.00354            571.88330
        0.13838            0.00354            573.61572
        0.14040            0.00354            575.42145
        0.14242            0.00354            577.30200
        0.14444            0.00354            579.25916
        0.14646            0.00354            581.29419
        0.14848            0.00354            583.40857
        0.15050            0.00354            585.60358
        0.15253            0.00354            587.88062
        0.15455            0.00354            590.24066
        0.15657            0.00354            592.68494
        0.15859            0.00354            595.21423
        0.16061            0.00354            597.82935
        0.16263            0.00354            600.53125
        0.16465            0.00354            603.32056
        0.16667            0.00354            606.19751
        0.16869            0.00354            609.16315
        0.17071            0.00354            612.21747
        0.17273            0.00354            615.36078
        0.17475            0.00354            618.59314
        0.17677            0.00354            621.91461
        0.17879            0.00354            625.32501
        0.18081            0.00354            628.82422
        0.18283            0.00354            632.41187
        0.18485            0.00354            636.08752
        0.18687            0.00354            639.85077
        0.18889            0.00354            643.70074
        0.19091            0.00354            647.63666
        0.19293            0.00354            651.65759
        0.19495            0.00354            655.76227
        0.19697            0.00354            659.94916
        0.19899            0.00354            664.21582
        0.20000            0.00354            666.38678
        0.00000            0.00455            400.00000
        0.00101            0.00455            407.22144
        0.00303            0.00455            420.54095
        0.00505            0.00455            432.26077
        0.00707            0.00455            442.52161
        0.00909            0.00455            451.56100
        0.01111            0.00455            459.58765
        0.01313            0.00455            466.76645
        0.01515            0.00455            473.22540
        0.01717            0.00455            479.06509
        0.01919            0.00455            484.36591
        0.02121            0.00455            489.19321
        0.02323            0.00455            493.60089
        0.02525            0.00455            497.63428
        0.02727            0.00455            501.33185
        0.02929            0.00455            504.72662
        0.03131            0.00455            507.84750
        0.03333            0.00455            510.71957
        0.03535            0.00455            513.36511
        0.03737            0.00455            515.80420
        0.03939            0.00455            518.05438
        0.04141            0.00455            520.13214
        0.04343            0.00455            522.05206
        0.04545            0.00455            523.82745
        0.04747            0.00455            525.47076
        0.04949            0.00455            526.99323
        0.05152            0.00455            528.40564
        0.05354            0.00455            529.71753