title="2D heat conduction problem"
variables="x","y","T"
zone i=101, j=101, f=point
0,0,0.90484
0,0.01,0.90937
0,0.02,0.91393
0,0.03,0.91851
0,0.04,0.92312
0,0.05,0.92774
0,0.06,0.93239
0,0.07,0.93707
0,0.08,0.94176
0,0.09,0.94649
0,0.1,0.95123
0,0.11,0.956
0,0.12,0.96079
0,0.13,0.96561
0,0.14,0.97045
0,0.15,0.97531
0,0.16,0.9802
0,0.17,0.98511
0,0.18,0.99005
0,0.19,0.99501
0,0.2,1
0,0.21,1.005
0,0.22,1.0101
0,0.23,1.0151
0,0.24,1.0202
0,0.25,1.0253
0,0.26,1.0305
0,0.27,1.0356
0,0.28,1.0408
0,0.29,1.046
0,0.3,1.0513
0,0.31,1.0565
0,0.32,1.0618
0,0.33,1.0672
0,0.34,1.0725
0,0.35,1.0779
0,0.36,1.0833
0,0.37,1.0887
0,0.38,1.0942
0,0.39,1.0997
0,0.4,1.1052
0,0.41,1.1107
0,0.42,1.1163
0,0.43,1.1219
0,0.44,1.1275
0,0.45,1.1331
0,0.46,1.1388
0,0.47,1.1445
0,0.48,1.1503
0,0.49,1.156
0,0.5,1.1618
0,0.51,1.1677
0,0.52,1.1735
0,0.53,1.1794
0,0.54,1.1853
0,0.55,1.1912
0,0.56,1.1972
0,0.57,1.2032
0,0.58,1.2092
0,0.59,1.2153
0,0.6,1.2214
0,0.61,1.2275
0,0.62,1.2337
0,0.63,1.2399
0,0.64,1.2461
0,0.65,1.2523
0,0.66,1.2586
0,0.67,1.2649
0,0.68,1.2712
0,0.69,1.2776
0,0.7,1.284
0,0.71,1.2905
0,0.72,1.2969
0,0.73,1.3034
0,0.74,1.31
0,0.75,1.3165
0,0.76,1.3231
0,0.77,1.3298
0,0.78,1.3364
0,0.79,1.3431
0,0.8,1.3499
0,0.81,1.3566
0,0.82,1.3634
0,0.83,1.3703
0,0.84,1.3771
0,0.85,1.384
0,0.86,1.391
0,0.87,1.3979
0,0.88,1.4049
0,0.89,1.412
0,0.9,1.4191
0,0.91,1.4262
0,0.92,1.4333
0,0.93,1.4405
0,0.94,1.4477
0,0.95,1.455
0,0.96,1.4623
0,0.97,1.4696
0,0.98,1.477
0,0.99,1.4844
0,1,1.4918
0.01,0,0.90937
0.01,0.01,0.91393
0.01,0.02,0.91851
0.01,0.03,0.92312
0.01,0.04,0.92774
0.01,0.05,0.93239
0.01,0.06,0.93707
0.01,0.07,0.94176
0.01,0.08,0.94649
0.01,0.09,0.95123
0.01,0.1,0.956
0.01,0.11,0.96079
0.01,0.12,0.96561
0.01,0.13,0.97045
0.01,0.14,0.97531
0.01,0.15,0.9802
0.01,0.16,0.98511
0.01,0.17,0.99005
0.01,0.18,0.99501
0.01,0.19,1
0.01,0.2,1.005
0.01,0.21,1.0101
0.01,0.22,1.0151
0.01,0.23,1.0202
0.01,0.24,1.0253
0.01,0.25,1.0305
0.01,0.26,1.0356
0.01,0.27,1.0408
0.01,0.28,1.046
0.01,0.29,1.0513
0.01,0.3,1.0565
0.01,0.31,1.0618
0.01,0.32,1.0672
0.01,0.33,1.0725
0.01,0.34,1.0779
0.01,0.35,1.0833
0.01,0.36,1.0887
0.01,0.37,1.0942
0.01,0.38,1.0997
0.01,0.39,1.1052
0.01,0.4,1.1107
0.01,0.41,1.1163
0.01,0.42,1.1219
0.01,0.43,1.1275
0.01,0.44,1.1331
0.01,0.45,1.1388
0.01,0.46,1.1445
0.01,0.47,1.1503
0.01,0.48,1.156
0.01,0.49,1.1618
0.01,0.5,1.1677
0.01,0.51,1.1735
0.01,0.52,1.1794
0.01,0.53,1.1853
0.01,0.54,1.1912
0.01,0.55,1.1972
0.01,0.56,1.2032
0.01,0.57,1.2092
0.01,0.58,1.2153
0.01,0.59,1.2214
0.01,0.6,1.2275
0.01,0.61,1.2337
0.01,0.62,1.2399
0.01,0.63,1.2461
0.01,0.64,1.2523
0.01,0.65,1.2586
0.01,0.66,1.2649
0.01,0.67,1.2712
0.01,0.68,1.2776
0.01,0.69,1.284
0.01,0.7,1.2905
0.01,0.71,1.2969
0.01,0.72,1.3034
0.01,0.73,1.31
0.01,0.74,1.3165
0.01,0.75,1.3231
0.01,0.76,1.3298
0.01,0.77,1.3364
0.01,0.78,1.3431
0.01,0.79,1.3499
0.01,0.8,1.3566
0.01,0.81,1.3634
0.01,0.82,1.3703
0.01,0.83,1.3771
0.01,0.84,1.384
0.01,0.85,1.391
0.01,0.86,1.3979
0.01,0.87,1.4049
0.01,0.88,1.412
0.01,0.89,1.4191
0.01,0.9,1.4262
0.01,0.91,1.4333
0.01,0.92,1.4405
0.01,0.93,1.4477
0.01,0.94,1.455
0.01,0.95,1.4623
0.01,0.96,1.4696
0.01,0.97,1.477
0.01,0.98,1.4844
0.01,0.99,1.4918
0.01,1,1.4993
0.02,0,0.91393
0.02,0.01,0.91851
0.02,0.02,0.92312
0.02,0.03,0.92774
0.02,0.04,0.93239
0.02,0.05,0.93707
0.02,0.06,0.94176
0.02,0.07,0.94649
0.02,0.08,0.95123
0.02,0.09,0.956
0.02,0.1,0.96079
0.02,0.11,0.96561
0.02,0.12,0.97045
0.02,0.13,0.97531
0.02,0.14,0.9802
0.02,0.15,0.98511
0.02,0.16,0.99005
0.02,0.17,0.99501
0.02,0.18,1
0.02,0.19,1.005
0.02,0.2,1.0101
0.02,0.21,1.0151
0.02,0.22,1.0202
0.02,0.23,1.0253
0.02,0.24,1.0305
0.02,0.25,1.0356
0.02,0.26,1.0408
0.02,0.27,1.046
0.02,0.28,1.0513
0.02,0.29,1.0565
0.02,0.3,1.0618
0.02,0.31,1.0672
0.02,0.32,1.0725
0.02,0.33,1.0779
0.02,0.34,1.0833
0.02,0.35,1.0887
0.02,0.36,1.0942
0.02,0.37,1.0997
0.02,0.38,1.1052
0.02,0.39,1.1107
0.02,0.4,1.1163
0.02,0.41,1.1219
0.02,0.42,1.1275
0.02,0.43,1.1331
0.02,0.44,1.1388
0.02,0.45,1.1445
0.02,0.46,1.1503
0.02,0.47,1.156
0.02,0.48,1.1618
0.02,0.49,1.1677
0.02,0.5,1.1735
0.02,0.51,1.1794
0.02,0.52,1.1853
0.02,0.53,1.1912
0.02,0.54,1.1972
0.02,0.55,1.2032
0.02,0.56,1.2092
0.02,0.57,1.2153
0.02,0.58,1.2214
0.02,0.59,1.2275
0.02,0.6,1.2337
0.02,0.61,1.2399
0.02,0.62,1.2461
0.02,0.63,1.2523
0.02,0.64,1.2586
0.02,0.65,1.2649
0.02,0.66,1.2712
0.02,0.67,1.2776
0.02,0.68,1.284
0.02,0.69,1.2905
0.02,0.7,1.2969
0.02,0.71,1.3034
0.02,0.72,1.31
0.02,0.73,1.3165
0.02,0.74,1.3231
0.02,0.75,1.3298
0.02,0.76,1.3364
0.02,0.77,1.3431
0.02,0.78,1.3499
0.02,0.79,1.3566
0.02,0.8,1.3634
0.02,0.81,1.3703
0.02,0.82,1.3771
0.02,0.83,1.384
0.02,0.84,1.391
0.02,0.85,1.3979
0.02,0.86,1.4049
0.02,0.87,1.412
0.02,0.88,1.4191
0.02,0.89,1.4262
0.02,0.9,1.4333
0.02,0.91,1.4405
0.02,0.92,1.4477
0.02,0.93,1.455
0.02,0.94,1.4623
0.02,0.95,1.4696
0.02,0.96,1.477
0.02,0.97,1.4844
0.02,0.98,1.4918
0.02,0.99,1.4993
0.02,1,1.5068
0.03,0,0.91851
0.03,0.01,0.92312
0.03,0.02,0.92774
0.03,0.03,0.93239
0.03,0.04,0.93707
0.03,0.05,0.94176
0.03,0.06,0.94649
0.03,0.07,0.95123
0.03,0.08,0.956
0.03,0.09,0.96079
0.03,0.1,0.96561
0.03,0.11,0.97045
0.03,0.12,0.97531
0.03,0.13,0.9802
0.03,0.14,0.98511
0.03,0.15,0.99005
0.03,0.16,0.99501
0.03,0.17,1
0.03,0.18,1.005
0.03,0.19,1.0101
0.03,0.2,1.0151
0.03,0.21,1.0202
0.03,0.22,1.0253
0.03,0.23,1.0305
0.03,0.24,1.0356
0.03,0.25,1.0408
0.03,0.26,1.046
0.03,0.27,1.0513
0.03,0.28,1.0565
0.03,0.29,1.0618
0.03,0.3,1.0672
0.03,0.31,1.0725
0.03,0.32,1.0779
0.03,0.33,1.0833
0.03,0.34,1.0887
0.03,0.35,1.0942
0.03,0.36,1.0997
0.03,0.37,1.1052
0.03,0.38,1.1107
0.03,0.39,1.1163
0.03,0.4,1.1219
0.03,0.41,1.1275
0.03,0.42,1.1331
0.03,0.43,1.1388
0.03,0.44,1.1445
0.03,0.45,1.1503
0.03,0.46,1.156
0.03,0.47,1.1618
0.03,0.48,1.1677
0.03,0.49,1.1735
0.03,0.5,1.1794
0.03,0.51,1.1853
0.03,0.52,1.1912
0.03,0.53,1.1972
0.03,0.54,1.2032
0.03,0.55,1.2092
0.03,0.56,1.2153
0.03,0.57,1.2214
0.03,0.58,1.2275
0.03,0.59,1.2337
0.03,0.6,1.2399
0.03,0.61,1.2461
0.03,0.62,1.2523
0.03,0.63,1.2586
0.03,0.64,1.2649
0.03,0.65,1.2712
0.03,0.66,1.2776
0.03,0.67,1.284
0.03,0.68,1.2905
0.03,0.69,1.2969
0.03,0.7,1.3034
0.03,0.71,1.31
0.03,0.72,1.3165
0.03,0.73,1.3231
0.03,0.74,1.3298
0.03,0.75,1.3364
0.03,0.76,1.3431
0.03,0.77,1.3499
0.03,0.78,1.3566
0.03,0.79,1.3634
0.03,0.8,1.3703
0.03,0.81,1.3771
0.03,0.82,1.384
0.03,0.83,1.391
0.03,0.84,1.3979
0.03,0.85,1.4049
0.03,0.86,1.412
0.03,0.87,1.4191
0.03,0.88,1.4262
0.03,0.89,1.4333
0.03,0.9,1.4405
0.03,0.91,1.4477
0.03,0.92,1.455
0.03,0.93,1.4623
0.03,0.94,1.4696
0.03,0.95,1.477
0.03,0.96,1.4844
0.03,0.97,1.4918
0.03,0.98,1.4993
0.03,0.99,1.5068
0.03,1,1.5144
0.04,0,0.92312
0.04,0.01,0.92774
0.04,0.02,0.93239
0.04,0.03,0.93707
0.04,0.04,0.94176
0.04,0.05,0.94649
0.04,0.06,0.95123
0.04,0.07,0.956
0.04,0.08,0.96079
0.04,0.09,0.96561
0.04,0.1,0.97045
0.04,0.11,0.97531
0.04,0.12,0.9802
0.04,0.13,0.98511
0.04,0.14,0.99005
0.04,0.15,0.99501
0.04,0.16,1
0.04,0.17,1.005
0.04,0.18,1.0101
0.04,0.19,1.0151
0.04,0.2,1.0202
0.04,0.21,1.0253
0.04,0.22,1.0305
0.04,0.23,1.0356
0.04,0.24,1.0408
0.04,0.25,1.046
0.04,0.26,1.0513
0.04,0.27,1.0565
0.04,0.28,1.0618
0.04,0.29,1.0672
0.04,0.3,1.0725
0.04,0.31,1.0779
0.04,0.32,1.0833
0.04,0.33,1.0887
0.04,0.34,1.0942
0.04,0.35,1.0997
0.04,0.36,1.1052
0.04,0.37,1.1107
0.04,0.38,1.1163
0.04,0.39,1.1219
0.04,0.4,1.1275
0.04,0.41,1.1331
0.04,0.42,1.1388
0.04,0.43,1.1445
0.04,0.44,1.1503
0.04,0.45,1.156
0.04,0.46,1.1618
0.04,0.47,1.1677
0.04,0.48,1.1735
0.04,0.49,1.1794
0.04,0.5,1.1853
0.04,0.51,1.1912
0.04,0.52,1.1972
0.04,0.53,1.2032
0.04,0.54,1.2092
0.04,0.55,1.2153
0.04,0.56,1.2214
0.04,0.57,1.2275
0.04,0.58,1.2337
0.04,0.59,1.2399
0.04,0.6,1.2461
0.04,0.61,1.2523
0.04,0.62,1.2586
0.04,0.63,1.2649
0.04,0.64,1.2712
0.04,0.65,1.2776
0.04,0.66,1.284
0.04,0.67,1.2905
0.04,0.68,1.2969
0.04,0.69,1.3034
0.04,0.7,1.31
0.04,0.71,1.3165
0.04,0.72,1.3231
0.04,0.73,1.3298
0.04,0.74,1.3364
0.04,0.75,1.3431
0.04,0.76,1.3499
0.04,0.77,1.3566
0.04,0.78,1.3634
0.04,0.79,1.3703
0.04,0.8,1.3771
0.04,0.81,1.384
0.04,0.82,1.391
0.04,0.83,1.3979
0.04,0.84,1.4049
0.04,0.85,1.412
0.04,0.86,1.4191
0.04,0.87,1.4262
0.04,0.88,1.4333
0.04,0.89,1.4405
0.04,0.9,1.4477
0.04,0.91,1.455
0.04,0.92,1.4623
0.04,0.93,1.4696
0.04,0.94,1.477
0.04,0.95,1.4844
0.04,0.96,1.4918
0.04,0.97,1.4993
0.04,0.98,1.5068
0.04,0.99,1.5144
0.04,1,1.522
0.05,0,0.92774
0.05,0.01,0.93239
0.05,0.02,0.93707
0.05,0.03,0.94176
0.05,0.04,0.94649
0.05,0.05,0.95123
0.05,0.06,0.956
0.05,0.07,0.96079
0.05,0.08,0.96561
0.05,0.09,0.97045
0.05,0.1,0.97531
0.05,0.11,0.9802
0.05,0.12,0.98511
0.05,0.13,0.99005
0.05,0.14,0.99501
0.05,0.15,1
0.05,0.16,1.005
0.05,0.17,1.0101
0.05,0.18,1.0151
0.05,0.19,1.0202
0.05,0.2,1.0253
0.05,0.21,1.0305
0.05,0.22,1.0356
0.05,0.23,1.0408
0.05,0.24,1.046
0.05,0.25,1.0513
0.05,0.26,1.0565
0.05,0.27,1.0618
0.05,0.28,1.0672
0.05,0.29,1.0725
0.05,0.3,1.0779
0.05,0.31,1.0833
0.05,0.32,1.0887
0.05,0.33,1.0942
0.05,0.34,1.0997
0.05,0.35,1.1052
0.05,0.36,1.1107
0.05,0.37,1.1163
0.05,0.38,1.1219
0.05,0.39,1.1275
0.05,0.4,1.1331
0.05,0.41,1.1388
0.05,0.42,1.1445
0.05,0.43,1.1503
0.05,0.44,1.156
0.05,0.45,1.1618
0.05,0.46,1.1677
0.05,0.47,1.1735
0.05,0.48,1.1794
0.05,0.49,1.1853
0.05,0.5,1.1912
0.05,0.51,1.1972
0.05,0.52,1.2032
0.05,0.53,1.2092
0.05,0.54,1.2153
0.05,0.55,1.2214
0.05,0.56,1.2275
0.05,0.57,1.2337
0.05,0.58,1.2399
0.05,0.59,1.2461
0.05,0.6,1.2523
0.05,0.61,1.2586
0.05,0.62,1.2649
0.05,0.63,1.2712
0.05,0.64,1.2776
0.05,0.65,1.284
0.05,0.66,1.2905
0.05,0.67,1.2969
0.05,0.68,1.3034
0.05,0.69,1.31
0.05,0.7,1.3165
0.05,0.71,1.3231
0.05,0.72,1.3298
0.05,0.73,1.3364
0.05,0.74,1.3431
0.05,0.75,1.3499
0.05,0.76,1.3566
0.05,0.77,1.3634
0.05,0.78,1.3703
0.05,0.79,1.3771
0.05,0.8,1.384
0.05,0.81,1.391
0.05,0.82,1.3979
0.05,0.83,1.4049
0.05,0.84,1.412
0.05,0.85,1.4191
0.05,0.86,1.4262
0.05,0.87,1.4333
0.05,0.88,1.4405
0.05,0.89,1.4477
0.05,0.9,1.455
0.05,0.91,1.4623
0.05,0.92,1.4696
0.05,0.93,1.477
0.05,0.94,1.4844
0.05,0.95,1.4918
0.05,0.96,1.4993
0.05,0.97,1.5068
0.05,0.98,1.5144
0.05,0.99,1.522
0.05,1,1.5296
0.06,0,0.93239
0.06,0.01,0.93707
0.06,0.02,0.94176
0.06,0.03,0.94649
0.06,0.04,0.95123
0.06,0.05,0.956
0.06,0.06,0.96079
0.06,0.07,0.96561
0.06,0.08,0.97045
0.06,0.09,0.97531
0.06,0.1,0.9802
0.06,0.11,0.98511
0.06,0.12,0.99005
0.06,0.13,0.99501
0.06,0.14,1
0.06,0.15,1.005
0.06,0.16,1.0101
0.06,0.17,1.0151
0.06,0.18,1.0202
0.06,0.19,1.0253
0.06,0.2,1.0305
0.06,0.21,1.0356
0.06,0.22,1.0408
0.06,0.23,1.046
0.06,0.24,1.0513
0.06,0.25,1.0565
0.06,0.26,1.0618
0.06,0.27,1.0672
0.06,0.28,1.0725
0.06,0.29,1.0779
0.06,0.3,1.0833
0.06,0.31,1.0887
0.06,0.32,1.0942
0.06,0.33,1.0997
0.06,0.34,1.1052
0.06,0.35,1.1107
0.06,0.36,1.1163
0.06,0.37,1.1219
0.06,0.38,1.1275
0.06,0.39,1.1331
0.06,0.4,1.1388
0.06,0.41,1.1445
0.06,0.42,1.1503
0.06,0.43,1.156
0.06,0.44,1.1618
0.06,0.45,1.1677
0.06,0.46,1.1735
0.06,0.47,1.1794
0.06,0.48,1.1853
0.06,0.49,1.1912
0.06,0.5,1.1972
0.06,0.51,1.2032
0.06,0.52,1.2092
0.06,0.53,1.2153
0.06,0.54,1.2214
0.06,0.55,1.2275
0.06,0.56,1.2337
0.06,0.57,1.2399
0.06,0.58,1.2461
0.06,0.59,1.2523
0.06,0.6,1.2586
0.06,0.61,1.2649
0.06,0.62,1.2712
0.06,0.63,1.2776
0.06,0.64,1.284
0.06,0.65,1.2905
0.06,0.66,1.2969
0.06,0.67,1.3034
0.06,0.68,1.31
0.06,0.69,1.3165
0.06,0.7,1.3231
0.06,0.71,1.3298
0.06,0.72,1.3364
0.06,0.73,1.3431
0.06,0.74,1.3499
0.06,0.75,1.3566
0.06,0.76,1.3634
0.06,0.77,1.3703
0.06,0.78,1.3771
0.06,0.79,1.384
0.06,0.8,1.391
0.06,0.81,1.3979
0.06,0.82,1.4049
0.06,0.83,1.412
0.06,0.84,1.4191
0.06,0.85,1.4262
0.06,0.86,1.4333
0.06,0.87,1.4405
0.06,0.88,1.4477
0.06,0.89,1.455
0.06,0.9,1.4623
0.06,0.91,1.4696
0.06,0.92,1.477
0.06,0.93,1.4844
0.06,0.94,1.4918
0.06,0.95,1.4993
0.06,0.96,1.5068
0.06,0.97,1.5144
0.06,0.98,1.522
0.06,0.99,1.5296
0.06,1,1.5373
0.07,0,0.93707
0.07,0.01,0.94176
0.07,0.02,0.94649
0.07,0.03,0.95123
0.07,0.04,0.956
0.07,0.05,0.96079
0.07,0.06,0.96561
0.07,0.07,0.97045
0.07,0.08,0.97531
0.07,0.09,0.9802
0.07,0.1,0.98511
0.07,0.11,0.99005
0.07,0.12,0.99501
0.07,0.13,1
0.07,0.14,1.005
0.07,0.15,1.0101
0.07,0.16,1.0151
0.07,0.17,1.0202
0.07,0.18,1.0253
0.07,0.19,1.0305
0.07,0.2,1.0356
0.07,0.21,1.0408
0.07,0.22,1.046
0.07,0.23,1.0513
0.07,0.24,1.0565
0.07,0.25,1.0618
0.07,0.26,1.0672
0.07,0.27,1.0725
0.07,0.28,1.0779
0.07,0.29,1.0833
0.07,0.3,1.0887
0.07,0.31,1.0942
0.07,0.32,1.0997
0.07,0.33,1.1052
0.07,0.34,1.1107
0.07,0.35,1.1163
0.07,0.36,1.1219
0.07,0.37,1.1275
0.07,0.38,1.1331
0.07,0.39,1.1388
0.07,0.4,1.1445
0.07,0.41,1.1503
0.07,0.42,1.156
0.07,0.43,1.1618
0.07,0.44,1.1677
0.07,0.45,1.1735
0.07,0.46,1.1794
0.07,0.47,1.1853
0.07,0.48,1.1912
0.07,0.49,1.1972
0.07,0.5,1.2032
0.07,0.51,1.2092
0.07,0.52,1.2153
0.07,0.53,1.2214
0.07,0.54,1.2275
0.07,0.55,1.2337
0.07,0.56,1.2399
0.07,0.57,1.2461
0.07,0.58,1.2523
0.07,0.59,1.2586
0.07,0.6,1.2649
0.07,0.61,1.2712
0.07,0.62,1.2776
0.07,0.63,1.284
0.07,0.64,1.2905
0.07,0.65,1.2969
0.07,0.66,1.3034
0.07,0.67,1.31
0.07,0.68,1.3165
0.07,0.69,1.3231
0.07,0.7,1.3298
0.07,0.71,1.3364
0.07,0.72,1.3431
0.07,0.73,1.3499
0.07,0.74,1.3566
0.07,0.75,1.3634
0.07,0.76,1.3703
0.07,0.77,1.3771
0.07,0.78,1.384
0.07,0.79,1.391
0.07,0.8,1.3979
0.07,0.81,1.4049
0.07,0.82,1.412
0.07,0.83,1.4191
0.07,0.84,1.4262
0.07,0.85,1.4333
0.07,0.86,1.4405
0.07,0.87,1.4477
0.07,0.88,1.455
0.07,0.89,1.4623
0.07,0.9,1.4696
0.07,0.91,1.477
0.07,0.92,1.4844
0.07,0.93,1.4918
0.07,0.94,1.4993
0.07,0.95,1.5068
0.07,0.96,1.5144
0.07,0.97,1.522
0.07,0.98,1.5296
0.07,0.99,1.5373
0.07,1,1.545
0.08,0,0.94176
0.08,0.01,0.94649
0.08,0.02,0.95123
0.08,0.03,0.956
0.08,0.04,0.96079
0.08,0.05,0.96561
0.08,0.06,0.97045
0.08,0.07,0.97531
0.08,0.08,0.9802
0.08,0.09,0.98511
0.08,0.1,0.99005
0.08,0.11,0.99501
0.08,0.12,1
0.08,0.13,1.005
0.08,0.14,1.0101
0.08,0.15,1.0151
0.08,0.16,1.0202
0.08,0.17,1.0253
0.08,0.18,1.0305
0.08,0.19,1.0356
0.08,0.2,1.0408
0.08,0.21,1.046
0.08,0.22,1.0513
0.08,0.23,1.0565
0.08,0.24,1.0618
0.08,0.25,1.0672
0.08,0.26,1.0725
0.08,0.27,1.0779
0.08,0.28,1.0833
0.08,0.29,1.0887
0.08,0.3,1.0942
0.08,0.31,1.0997
0.08,0.32,1.1052
0.08,0.33,1.1107
0.08,0.34,1.1163
0.08,0.35,1.1219
0.08,0.36,1.1275
0.08,0.37,1.1331
0.08,0.38,1.1388
0.08,0.39,1.1445
0.08,0.4,1.1503
0.08,0.41,1.156
0.08,0.42,1.1618
0.08,0.43,1.1677
0.08,0.44,1.1735
0.08,0.45,1.1794
0.08,0.46,1.1853
0.08,0.47,1.1912
0.08,0.48,1.1972
0.08,0.49,1.2032
0.08,0.5,1.2092
0.08,0.51,1.2153
0.08,0.52,1.2214
0.08,0.53,1.2275
0.08,0.54,1.2337
0.08,0.55,1.2399
0.08,0.56,1.2461
0.08,0.57,1.2523
0.08,0.58,1.2586
0.08,0.59,1.2649
0.08,0.6,1.2712
0.08,0.61,1.2776
0.08,0.62,1.284
0.08,0.63,1.2905
0.08,0.64,1.2969
0.08,0.65,1.3034
0.08,0.66,1.31
0.08,0.67,1.3165
0.08,0.68,1.3231
0.08,0.69,1.3298
0.08,0.7,1.3364
0.08,0.71,1.3431
0.08,0.72,1.3499
0.08,0.73,1.3566
0.08,0.74,1.3634
0.08,0.75,1.3703
0.08,0.76,1.3771
0.08,0.77,1.384
0.08,0.78,1.391
0.08,0.79,1.3979
0.08,0.8,1.4049
0.08,0.81,1.412
0.08,0.82,1.4191
0.08,0.83,1.4262
0.08,0.84,1.4333
0.08,0.85,1.4405
0.08,0.86,1.4477
0.08,0.87,1.455
0.08,0.88,1.4623
0.08,0.89,1.4696
0.08,0.9,1.477
0.08,0.91,1.4844
0.08,0.92,1.4918
0.08,0.93,1.4993
0.08,0.94,1.5068
0.08,0.95,1.5144
0.08,0.96,1.522
0.08,0.97,1.5296
0.08,0.98,1.5373
0.08,0.99,1.545
0.08,1,1.5527
0.09,0,0.94649
0.09,0.01,0.95123
0.09,0.02,0.956
0.09,0.03,0.96079
0.09,0.04,0.96561
0.09,0.05,0.97045
0.09,0.06,0.97531
0.09,0.07,0.9802
0.09,0.08,0.98511
0.09,0.09,0.99005
0.09,0.1,0.99501
0.09,0.11,1
0.09,0.12,1.005
0.09,0.13,1.0101
0.09,0.14,1.0151
0.09,0.15,1.0202
0.09,0.16,1.0253
0.09,0.17,1.0305
0.09,0.18,1.0356
0.09,0.19,1.0408
0.09,0.2,1.046
0.09,0.21,1.0513
0.09,0.22,1.0565
0.09,0.23,1.0618
0.09,0.24,1.0672
0.09,0.25,1.0725
0.09,0.26,1.0779
0.09,0.27,1.0833
0.09,0.28,1.0887
0.09,0.29,1.0942
0.09,0.3,1.0997
0.09,0.31,1.1052
0.09,0.32,1.1107
0.09,0.33,1.1163
0.09,0.34,1.1219
0.09,0.35,1.1275
0.09,0.36,1.1331
0.09,0.37,1.1388
0.09,0.38,1.1445
0.09,0.39,1.1503
0.09,0.4,1.156
0.09,0.41,1.1618
0.09,0.42,1.1677
0.09,0.43,1.1735
0.09,0.44,1.1794
0.09,0.45,1.1853
0.09,0.46,1.1912
0.09,0.47,1.1972
0.09,0.48,1.2032
0.09,0.49,1.2092
0.09,0.5,1.2153
0.09,0.51,1.2214
0.09,0.52,1.2275
0.09,0.53,1.2337
0.09,0.54,1.2399
0.09,0.55,1.2461
0.09,0.56,1.2523
0.09,0.57,1.2586
0.09,0.58,1.2649
0.09,0.59,1.2712
0.09,0.6,1.2776
0.09,0.61,1.284
0.09,0.62,1.2905
0.09,0.63,1.2969
0.09,0.64,1.3034
0.09,0.65,1.31
0.09,0.66,1.3165
0.09,0.67,1.3231
0.09,0.68,1.3298
0.09,0.69,1.3364
0.09,0.7,1.3431
0.09,0.71,1.3499
0.09,0.72,1.3566
0.09,0.73,1.3634
0.09,0.74,1.3703
0.09,0.75,1.3771
0.09,0.76,1.384
0.09,0.77,1.391
0.09,0.78,1.3979
0.09,0.79,1.4049
0.09,0.8,1.412
0.09,0.81,1.4191
0.09,0.82,1.4262
0.09,0.83,1.4333
0.09,0.84,1.4405
0.09,0.85,1.4477
0.09,0.86,1.455
0.09,0.87,1.4623
0.09,0.88,1.4696
0.09,0.89,1.477
0.09,0.9,1.4844
0.09,0.91,1.4918
0.09,0.92,1.4993
0.09,0.93,1.5068
0.09,0.94,1.5144
0.09,0.95,1.522
0.09,0.96,1.5296
0.09,0.97,1.5373
0.09,0.98,1.545
0.09,0.99,1.5527
0.09,1,1.5605
0.1,0,0.95123
0.1,0.01,0.956
0.1,0.02,0.96079
0.1,0.03,0.96561
0.1,0.04,0.97045
0.1,0.05,0.97531
0.1,0.06,0.9802
0.1,0.07,0.98511
0.1,0.08,0.99005
0.1,0.09,0.99501
0.1,0.1,1
0.1,0.11,1.005
0.1,0.12,1.0101
0.1,0.13,1.0151
0.1,0.14,1.0202
0.1,0.15,1.0253
0.1,0.16,1.0305
0.1,0.17,1.0356
0.1,0.18,1.0408
0.1,0.19,1.046
0.1,0.2,1.0513
0.1,0.21,1.0565
0.1,0.22,1.0618
0.1,0.23,1.0672
0.1,0.24,1.0725
0.1,0.25,1.0779
0.1,0.26,1.0833
0.1,0.27,1.0887
0.1,0.28,1.0942
0.1,0.29,1.0997
0.1,0.3,1.1052
0.1,0.31,1.1107
0.1,0.32,1.1163
0.1,0.33,1.1219
0.1,0.34,1.1275
0.1,0.35,1.1331
0.1,0.36,1.1388
0.1,0.37,1.1445
0.1,0.38,1.1503
0.1,0.39,1.156
0.1,0.4,1.1618
0.1,0.41,1.1677
0.1,0.42,1.1735
0.1,0.43,1.1794
0.1,0.44,1.1853
0.1,0.45,1.1912
0.1,0.46,1.1972
0.1,0.47,1.2032
0.1,0.48,1.2092
0.1,0.49,1.2153
0.1,0.5,1.2214
0.1,0.51,1.2275
0.1,0.52,1.2337
0.1,0.53,1.2399
0.1,0.54,1.2461
0.1,0.55,1.2523
0.1,0.56,1.2586
0.1,0.57,1.2649
0.1,0.58,1.2712
0.1,0.59,1.2776
0.1,0.6,1.284
0.1,0.61,1.2905
0.1,0.62,1.2969
0.1,0.63,1.3034
0.1,0.64,1.31
0.1,0.65,1.3165
0.1,0.66,1.3231
0.1,0.67,1.3298
0.1,0.68,1.3364
0.1,0.69,1.3431
0.1,0.7,1.3499
0.1,0.71,1.3566
0.1,0.72,1.3634
0.1,0.73,1.3703
0.1,0.74,1.3771
0.1,0.75,1.384
0.1,0.76,1.391
0.1,0.77,1.3979
0.1,0.78,1.4049
0.1,0.79,1.412
0.1,0.8,1.4191
0.1,0.81,1.4262
0.1,0.82,1.4333
0.1,0.83,1.4405
0.1,0.84,1.4477
0.1,0.85,1.455
0.1,0.86,1.4623
0.1,0.87,1.4696
0.1,0.88,1.477
0.1,0.89,1.4844
0.1,0.9,1.4918
0.1,0.91,1.4993
0.1,0.92,1.5068
0.1,0.93,1.5144
0.1,0.94,1.522
0.1,0.95,1.5296
0.1,0.96,1.5373
0.1,0.97,1.545
0.1,0.98,1.5527
0.1,0.99,1.5605
0.1,1,1.5683
0.11,0,0.956
0.11,0.01,0.96079
0.11,0.02,0.96561
0.11,0.03,0.97045
0.11,0.04,0.97531
0.11,0.05,0.9802
0.11,0.06,0.98511
0.11,0.07,0.99005
0.11,0.08,0.99501
0.11,0.09,1
0.11,0.1,1.005
0.11,0.11,1.0101
0.11,0.12,1.0151
0.11,0.13,1.0202
0.11,0.14,1.0253
0.11,0.15,1.0305
0.11,0.16,1.0356
0.11,0.17,1.0408
0.11,0.18,1.046
0.11,0.19,1.0513
0.11,0.2,1.0565
0.11,0.21,1.0618
0.11,0.22,1.0672
0.11,0.23,1.0725
0.11,0.24,1.0779
0.11,0.25,1.0833
0.11,0.26,1.0887
0.11,0.27,1.0942
0.11,0.28,1.0997
0.11,0.29,1.1052
0.11,0.3,1.1107
0.11,0.31,1.1163
0.11,0.32,1.1219
0.11,0.33,1.1275
0.11,0.34,1.1331
0.11,0.35,1.1388
0.11,0.36,1.1445
0.11,0.37,1.1503
0.11,0.38,1.156
0.11,0.39,1.1618
0.11,0.4,1.1677
0.11,0.41,1.1735
0.11,0.42,1.1794
0.11,0.43,1.1853
0.11,0.44,1.1912
0.11,0.45,1.1972
0.11,0.46,1.2032
0.11,0.47,1.2092
0.11,0.48,1.2153
0.11,0.49,1.2214
0.11,0.5,1.2275
0.11,0.51,1.2337
0.11,0.52,1.2399
0.11,0.53,1.2461
0.11,0.54,1.2523
0.11,0.55,1.2586
0.11,0.56,1.2649
0.11,0.57,1.2712
0.11,0.58,1.2776
0.11,0.59,1.284
0.11,0.6,1.2905
0.11,0.61,1.2969
0.11,0.62,1.3034
0.11,0.63,1.31
0.11,0.64,1.3165
0.11,0.65,1.3231
0.11,0.66,1.3298
0.11,0.67,1.3364
0.11,0.68,1.3431
0.11,0.69,1.3499
0.11,0.7,1.3566
0.11,0.71,1.3634
0.11,0.72,1.3703
0.11,0.73,1.3771
0.11,0.74,1.384
0.11,0.75,1.391
0.11,0.76,1.3979
0.11,0.77,1.4049
0.11,0.78,1.412
0.11,0.79,1.4191
0.11,0.8,1.4262
0.11,0.81,1.4333
0.11,0.82,1.4405
0.11,0.83,1.4477
0.11,0.84,1.455
0.11,0.85,1.4623
0.11,0.86,1.4696
0.11,0.87,1.477
0.11,0.88,1.4844
0.11,0.89,1.4918
0.11,0.9,1.4993
0.11,0.91,1.5068
0.11,0.92,1.5144
0.11,0.93,1.522
0.11,0.94,1.5296
0.11,0.95,1.5373
0.11,0.96,1.545
0.11,0.97,1.5527
0.11,0.98,1.5605
0.11,0.99,1.5683
0.11,1,1.5762
0.12,0,0.96079
0.12,0.01,0.96561
0.12,0.02,0.97045
0.12,0.03,0.97531
0.12,0.04,0.9802
0.12,0.05,0.98511
0.12,0.06,0.99005
0.12,0.07,0.99501
0.12,0.08,1
0.12,0.09,1.005
0.12,0.1,1.0101
0.12,0.11,1.0151
0.12,0.12,1.0202
0.12,0.13,1.0253
0.12,0.14,1.0305
0.12,0.15,1.0356
0.12,0.16,1.0408
0.12,0.17,1.046
0.12,0.18,1.0513
0.12,0.19,1.0565
0.12,0.2,1.0618
0.12,0.21,1.0672
0.12,0.22,1.0725
0.12,0.23,1.0779
0.12,0.24,1.0833
0.12,0.25,1.0887
0.12,0.26,1.0942
0.12,0.27,1.0997
0.12,0.28,1.1052
0.12,0.29,1.1107
0.12,0.3,1.1163
0.12,0.31,1.1219
0.12,0.32,1.1275
0.12,0.33,1.1331
0.12,0.34,1.1388
0.12,0.35,1.1445
0.12,0.36,1.1503
0.12,0.37,1.156
0.12,0.38,1.1618
0.12,0.39,1.1677
0.12,0.4,1.1735
0.12,0.41,1.1794
0.12,0.42,1.1853
0.12,0.43,1.1912
0.12,0.44,1.1972
0.12,0.45,1.2032
0.12,0.46,1.2092
0.12,0.47,1.2153
0.12,0.48,1.2214
0.12,0.49,1.2275
0.12,0.5,1.2337
0.12,0.51,1.2399
0.12,0.52,1.2461
0.12,0.53,1.2523
0.12,0.54,1.2586
0.12,0.55,1.2649
0.12,0.56,1.2712
0.12,0.57,1.2776
0.12,0.58,1.284
0.12,0.59,1.2905
0.12,0.6,1.2969
0.12,0.61,1.3034
0.12,0.62,1.31
0.12,0.63,1.3165
0.12,0.64,1.3231
0.12,0.65,1.3298
0.12,0.66,1.3364
0.12,0.67,1.3431
0.12,0.68,1.3499
0.12,0.69,1.3566
0.12,0.7,1.3634
0.12,0.71,1.3703
0.12,0.72,1.3771
0.12,0.73,1.384
0.12,0.74,1.391
0.12,0.75,1.3979
0.12,0.76,1.4049
0.12,0.77,1.412
0.12,0.78,1.4191
0.12,0.79,1.4262
0.12,0.8,1.4333
0.12,0.81,1.4405
0.12,0.82,1.4477
0.12,0.83,1.455
0.12,0.84,1.4623
0.12,0.85,1.4696
0.12,0.86,1.477
0.12,0.87,1.4844
0.12,0.88,1.4918
0.12,0.89,1.4993
0.12,0.9,1.5068
0.12,0.91,1.5144
0.12,0.92,1.522
0.12,0.93,1.5296
0.12,0.94,1.5373
0.12,0.95,1.545
0.12,0.96,1.5527
0.12,0.97,1.5605
0.12,0.98,1.5683
0.12,0.99,1.5762
0.12,1,1.5841
0.13,0,0.96561
0.13,0.01,0.97045
0.13,0.02,0.97531
0.13,0.03,0.9802
0.13,0.04,0.98511
0.13,0.05,0.99005
0.13,0.06,0.99501
0.13,0.07,1
0.13,0.08,1.005
0.13,0.09,1.0101
0.13,0.1,1.0151
0.13,0.11,1.0202
0.13,0.12,1.0253
0.13,0.13,1.0305
0.13,0.14,1.0356
0.13,0.15,1.0408
0.13,0.16,1.046
0.13,0.17,1.0513
0.13,0.18,1.0565
0.13,0.19,1.0618
0.13,0.2,1.0672
0.13,0.21,1.0725
0.13,0.22,1.0779
0.13,0.23,1.0833
0.13,0.24,1.0887
0.13,0.25,1.0942
0.13,0.26,1.0997
0.13,0.27,1.1052
0.13,0.28,1.1107
0.13,0.29,1.1163
0.13,0.3,1.1219
0.13,0.31,1.1275
0.13,0.32,1.1331
0.13,0.33,1.1388
0.13,0.34,1.1445
0.13,0.35,1.1503
0.13,0.36,1.156
0.13,0.37,1.1618
0.13,0.38,1.1677
0.13,0.39,1.1735
0.13,0.4,1.1794
0.13,0.41,1.1853
0.13,0.42,1.1912
0.13,0.43,1.1972
0.13,0.44,1.2032
0.13,0.45,1.2092
0.13,0.46,1.2153
0.13,0.47,1.2214
0.13,0.48,1.2275
0.13,0.49,1.2337
0.13,0.5,1.2399
0.13,0.51,1.2461
0.13,0.52,1.2523
0.13,0.53,1.2586
0.13,0.54,1.2649
0.13,0.55,1.2712
0.13,0.56,1.2776
0.13,0.57,1.284
0.13,0.58,1.2905
0.13,0.59,1.2969
0.13,0.6,1.3034
0.13,0.61,1.31
0.13,0.62,1.3165
0.13,0.63,1.3231
0.13,0.64,1.3298
0.13,0.65,1.3364
0.13,0.66,1.3431
0.13,0.67,1.3499
0.13,0.68,1.3566
0.13,0.69,1.3634
0.13,0.7,1.3703
0.13,0.71,1.3771
0.13,0.72,1.384
0.13,0.73,1.391
0.13,0.74,1.3979
0.13,0.75,1.4049
0.13,0.76,1.412
0.13,0.77,1.4191
0.13,0.78,1.4262
0.13,0.79,1.4333
0.13,0.8,1.4405
0.13,0.81,1.4477
0.13,0.82,1.455
0.13,0.83,1.4623
0.13,0.84,1.4696
0.13,0.85,1.477
0.13,0.86,1.4844
0.13,0.87,1.4918
0.13,0.88,1.4993
0.13,0.89,1.5068
0.13,0.9,1.5144
0.13,0.91,1.522
0.13,0.92,1.5296
0.13,0.93,1.5373
0.13,0.94,1.545
0.13,0.95,1.5527
0.13,0.96,1.5605
0.13,0.97,1.5683
0.13,0.98,1.5762
0.13,0.99,1.5841
0.13,1,1.592
0.14,0,0.97045
0.14,0.01,0.97531
0.14,0.02,0.9802
0.14,0.03,0.98511
0.14,0.04,0.99005
0.14,0.05,0.99501
0.14,0.06,1
0.14,0.07,1.005
0.14,0.08,1.0101
0.14,0.09,1.0151
0.14,0.1,1.0202
0.14,0.11,1.0253
0.14,0.12,1.0305
0.14,0.13,1.0356
0.14,0.14,1.0408
0.14,0.15,1.046
0.14,0.16,1.0513
0.14,0.17,1.0565
0.14,0.18,1.0618
0.14,0.19,1.0672
0.14,0.2,1.0725
0.14,0.21,1.0779
0.14,0.22,1.0833
0.14,0.23,1.0887
0.14,0.24,1.0942
0.14,0.25,1.0997
0.14,0.26,1.1052
0.14,0.27,1.1107
0.14,0.28,1.1163
0.14,0.29,1.1219
0.14,0.3,1.1275
0.14,0.31,1.1331
0.14,0.32,1.1388
0.14,0.33,1.1445
0.14,0.34,1.1503
0.14,0.35,1.156
0.14,0.36,1.1618
0.14,0.37,1.1677
0.14,0.38,1.1735
0.14,0.39,1.1794
0.14,0.4,1.1853
0.14,0.41,1.1912
0.14,0.42,1.1972
0.14,0.43,1.2032
0.14,0.44,1.2092
0.14,0.45,1.2153
0.14,0.46,1.2214
0.14,0.47,1.2275
0.14,0.48,1.2337
0.14,0.49,1.2399
0.14,0.5,1.2461
0.14,0.51,1.2523
0.14,0.52,1.2586
0.14,0.53,1.2649
0.14,0.54,1.2712
0.14,0.55,1.2776
0.14,0.56,1.284
0.14,0.57,1.2905
0.14,0.58,1.2969
0.14,0.59,1.3034
0.14,0.6,1.31
0.14,0.61,1.3165
0.14,0.62,1.3231
0.14,0.63,1.3298
0.14,0.64,1.3364
0.14,0.65,1.3431
0.14,0.66,1.3499
0.14,0.67,1.3566
0.14,0.68,1.3634
0.14,0.69,1.3703
0.14,0.7,1.3771
0.14,0.71,1.384
0.14,0.72,1.391
0.14,0.73,1.3979
0.14,0.74,1.4049
0.14,0.75,1.412
0.14,0.76,1.4191
0.14,0.77,1.4262
0.14,0.78,1.4333
0.14,0.79,1.4405
0.14,0.8,1.4477
0.14,0.81,1.455
0.14,0.82,1.4623
0.14,0.83,1.4696
0.14,0.84,1.477
0.14,0.85,1.4844
0.14,0.86,1.4918
0.14,0.87,1.4993
0.14,0.88,1.5068
0.14,0.89,1.5144
0.14,0.9,1.522
0.14,0.91,1.5296
0.14,0.92,1.5373
0.14,0.93,1.545
0.14,0.94,1.5527
0.14,0.95,1.5605
0.14,0.96,1.5683
0.14,0.97,1.5762
0.14,0.98,1.5841
0.14,0.99,1.592
0.14,1,1.6
0.15,0,0.97531
0.15,0.01,0.9802
0.15,0.02,0.98511
0.15,0.03,0.99005
0.15,0.04,0.99501
0.15,0.05,1
0.15,0.06,1.005
0.15,0.07,1.0101
0.15,0.08,1.0151
0.15,0.09,1.0202
0.15,0.1,1.0253
0.15,0.11,1.0305
0.15,0.12,1.0356
0.15,0.13,1.0408
0.15,0.14,1.046
0.15,0.15,1.0513
0.15,0.16,1.0565
0.15,0.17,1.0618
0.15,0.18,1.0672
0.15,0.19,1.0725
0.15,0.2,1.0779
0.15,0.21,1.0833
0.15,0.22,1.0887
0.15,0.23,1.0942
0.15,0.24,1.0997
0.15,0.25,1.1052
0.15,0.26,1.1107
0.15,0.27,1.1163
0.15,0.28,1.1219
0.15,0.29,1.1275
0.15,0.3,1.1331
0.15,0.31,1.1388
0.15,0.32,1.1445
0.15,0.33,1.1503
0.15,0.34,1.156
0.15,0.35,1.1618
0.15,0.36,1.1677
0.15,0.37,1.1735
0.15,0.38,1.1794
0.15,0.39,1.1853
0.15,0.4,1.1912
0.15,0.41,1.1972
0.15,0.42,1.2032
0.15,0.43,1.2092
0.15,0.44,1.2153
0.15,0.45,1.2214
0.15,0.46,1.2275
0.15,0.47,1.2337
0.15,0.48,1.2399
0.15,0.49,1.2461
0.15,0.5,1.2523
0.15,0.51,1.2586
0.15,0.52,1.2649
0.15,0.53,1.2712
0.15,0.54,1.2776
0.15,0.55,1.284
0.15,0.56,1.2905
0.15,0.57,1.2969
0.15,0.58,1.3034
0.15,0.59,1.31
0.15,0.6,1.3165
0.15,0.61,1.3231
0.15,0.62,1.3298
0.15,0.63,1.3364
0.15,0.64,1.3431
0.15,0.65,1.3499
0.15,0.66,1.3566
0.15,0.67,1.3634
0.15,0.68,1.3703
0.15,0.69,1.3771
0.15,0.7,1.384
0.15,0.71,1.391
0.15,0.72,1.3979
0.15,0.73,1.4049
0.15,0.74,1.412
0.15,0.75,1.4191
0.15,0.76,1.4262
0.15,0.77,1.4333
0.15,0.78,1.4405
0.15,0.79,1.4477
0.15,0.8,1.455
0.15,0.81,1.4623
0.15,0.82,1.4696
0.15,0.83,1.477
0.15,0.84,1.4844
0.15,0.85,1.4918
0.15,0.86,1.4993
0.15,0.87,1.5068
0.15,0.88,1.5144
0.15,0.89,1.522
0.15,0.9,1.5296
0.15,0.91,1.5373
0.15,0.92,1.545
0.15,0.93,1.5527
0.15,0.94,1.5605
0.15,0.95,1.5683
0.15,0.96,1.5762
0.15,0.97,1.5841
0.15,0.98,1.592
0.15,0.99,1.6
0.15,1,1.608
0.16,0,0.9802
0.16,0.01,0.98511
0.16,0.02,0.99005
0.16,0.03,0.99501
0.16,0.04,1
0.16,0.05,1.005
0.16,0.06,1.0101
0.16,0.07,1.0151
0.16,0.08,1.0202
0.16,0.09,1.0253
0.16,0.1,1.0305
0.16,0.11,1.0356
0.16,0.12,1.0408
0.16,0.13,1.046
0.16,0.14,1.0513
0.16,0.15,1.0565
0.16,0.16,1.0618
0.16,0.17,1.0672
0.16,0.18,1.0725
0.16,0.19,1.0779
0.16,0.2,1.0833
0.16,0.21,1.0887
0.16,0.22,1.0942
0.16,0.23,1.0997
0.16,0.24,1.1052
0.16,0.25,1.1107
0.16,0.26,1.1163
0.16,0.27,1.1219
0.16,0.28,1.1275
0.16,0.29,1.1331
0.16,0.3,1.1388
0.16,0.31,1.1445
0.16,0.32,1.1503
0.16,0.33,1.156
0.16,0.34,1.1618
0.16,0.35,1.1677
0.16,0.36,1.1735
0.16,0.37,1.1794
0.16,0.38,1.1853
0.16,0.39,1.1912
0.16,0.4,1.1972
0.16,0.41,1.2032
0.16,0.42,1.2092
0.16,0.43,1.2153
0.16,0.44,1.2214
0.16,0.45,1.2275
0.16,0.46,1.2337
0.16,0.47,1.2399
0.16,0.48,1.2461
0.16,0.49,1.2523
0.16,0.5,1.2586
0.16,0.51,1.2649
0.16,0.52,1.2712
0.16,0.53,1.2776
0.16,0.54,1.284
0.16,0.55,1.2905
0.16,0.56,1.2969
0.16,0.57,1.3034
0.16,0.58,1.31
0.16,0.59,1.3165
0.16,0.6,1.3231
0.16,0.61,1.3298
0.16,0.62,1.3364
0.16,0.63,1.3431
0.16,0.64,1.3499
0.16,0.65,1.3566
0.16,0.66,1.3634
0.16,0.67,1.3703
0.16,0.68,1.3771
0.16,0.69,1.384
0.16,0.7,1.391
0.16,0.71,1.3979
0.16,0.72,1.4049
0.16,0.73,1.412
0.16,0.74,1.4191
0.16,0.75,1.4262
0.16,0.76,1.4333
0.16,0.77,1.4405
0.16,0.78,1.4477
0.16,0.79,1.455
0.16,0.8,1.4623
0.16,0.81,1.4696
0.16,0.82,1.477
0.16,0.83,1.4844
0.16,0.84,1.4918
0.16,0.85,1.4993
0.16,0.86,1.5068
0.16,0.87,1.5144
0.16,0.88,1.522
0.16,0.89,1.5296
0.16,0.9,1.5373
0.16,0.91,1.545
0.16,0.92,1.5527
0.16,0.93,1.5605
0.16,0.94,1.5683
0.16,0.95,1.5762
0.16,0.96,1.5841
0.16,0.97,1.592
0.16,0.98,1.6
0.16,0.99,1.608
0.16,1,1.6161
0.17,0,0.98511
0.17,0.01,0.99005
0.17,0.02,0.99501
0.17,0.03,1
0.17,0.04,1.005
0.17,0.05,1.0101
0.17,0.06,1.0151
0.17,0.07,1.0202
0.17,0.08,1.0253
0.17,0.09,1.0305
0.17,0.1,1.0356
0.17,0.11,1.0408
0.17,0.12,1.046
0.17,0.13,1.0513
0.17,0.14,1.0565
0.17,0.15,1.0618
0.17,0.16,1.0672
0.17,0.17,1.0725
0.17,0.18,1.0779
0.17,0.19,1.0833
0.17,0.2,1.0887
0.17,0.21,1.0942
0.17,0.22,1.0997
0.17,0.23,1.1052
0.17,0.24,1.1107
0.17,0.25,1.1163
0.17,0.26,1.1219
0.17,0.27,1.1275
0.17,0.28,1.1331
0.17,0.29,1.1388
0.17,0.3,1.1445
0.17,0.31,1.1503
0.17,0.32,1.156
0.17,0.33,1.1618
0.17,0.34,1.1677
0.17,0.35,1.1735
0.17,0.36,1.1794
0.17,0.37,1.1853
0.17,0.38,1.1912
0.17,0.39,1.1972
0.17,0.4,1.2032
0.17,0.41,1.2092
0.17,0.42,1.2153
0.17,0.43,1.2214
0.17,0.44,1.2275
0.17,0.45,1.2337
0.17,0.46,1.2399
0.17,0.47,1.2461
0.17,0.48,1.2523
0.17,0.49,1.2586
0.17,0.5,1.2649
0.17,0.51,1.2712
0.17,0.52,1.2776
0.17,0.53,1.284
0.17,0.54,1.2905
0.17,0.55,1.2969
0.17,0.56,1.3034
0.17,0.57,1.31
0.17,0.58,1.3165
0.17,0.59,1.3231
0.17,0.6,1.3298
0.17,0.61,1.3364
0.17,0.62,1.3431
0.17,0.63,1.3499
0.17,0.64,1.3566
0.17,0.65,1.3634
0.17,0.66,1.3703
0.17,0.67,1.3771
0.17,0.68,1.384
0.17,0.69,1.391
0.17,0.7,1.3979
0.17,0.71,1.4049
0.17,0.72,1.412
0.17,0.73,1.4191
0.17,0.74,1.4262
0.17,0.75,1.4333
0.17,0.76,1.4405
0.17,0.77,1.4477
0.17,0.78,1.455
0.17,0.79,1.4623
0.17,0.8,1.4696
0.17,0.81,1.477
0.17,0.82,1.4844
0.17,0.83,1.4918
0.17,0.84,1.4993
0.17,0.85,1.5068
0.17,0.86,1.5144
0.17,0.87,1.522
0.17,0.88,1.5296
0.17,0.89,1.5373
0.17,0.9,1.545