title="2D heat conduction problem"
variables="x","y","T"
zone i=101, j=101, f=point
0,0,0.36788
0,0.01,0.36972
0,0.02,0.37158
0,0.03,0.37344
0,0.04,0.37531
0,0.05,0.37719
0,0.06,0.37908
0,0.07,0.38098
0,0.08,0.38289
0,0.09,0.38481
0,0.1,0.38674
0,0.11,0.38868
0,0.12,0.39063
0,0.13,0.39259
0,0.14,0.39455
0,0.15,0.39653
0,0.16,0.39852
0,0.17,0.40052
0,0.18,0.40252
0,0.19,0.40454
0,0.2,0.40657
0,0.21,0.40861
0,0.22,0.41066
0,0.23,0.41271
0,0.24,0.41478
0,0.25,0.41686
0,0.26,0.41895
0,0.27,0.42105
0,0.28,0.42316
0,0.29,0.42528
0,0.3,0.42741
0,0.31,0.42956
0,0.32,0.43171
0,0.33,0.43387
0,0.34,0.43605
0,0.35,0.43823
0,0.36,0.44043
0,0.37,0.44264
0,0.38,0.44486
0,0.39,0.44709
0,0.4,0.44933
0,0.41,0.45158
0,0.42,0.45384
0,0.43,0.45612
0,0.44,0.45841
0,0.45,0.4607
0,0.46,0.46301
0,0.47,0.46533
0,0.48,0.46767
0,0.49,0.47001
0,0.5,0.47237
0,0.51,0.47473
0,0.52,0.47711
0,0.53,0.47951
0,0.54,0.48191
0,0.55,0.48432
0,0.56,0.48675
0,0.57,0.48919
0,0.58,0.49164
0,0.59,0.49411
0,0.6,0.49659
0,0.61,0.49907
0,0.62,0.50158
0,0.63,0.50409
0,0.64,0.50662
0,0.65,0.50916
0,0.66,0.51171
0,0.67,0.51427
0,0.68,0.51685
0,0.69,0.51944
0,0.7,0.52205
0,0.71,0.52466
0,0.72,0.52729
0,0.73,0.52994
0,0.74,0.53259
0,0.75,0.53526
0,0.76,0.53794
0,0.77,0.54064
0,0.78,0.54335
0,0.79,0.54607
0,0.8,0.54881
0,0.81,0.55156
0,0.82,0.55433
0,0.83,0.55711
0,0.84,0.5599
0,0.85,0.5627
0,0.86,0.56553
0,0.87,0.56836
0,0.88,0.57121
0,0.89,0.57407
0,0.9,0.57695
0,0.91,0.57984
0,0.92,0.58275
0,0.93,0.58567
0,0.94,0.5886
0,0.95,0.59156
0,0.96,0.59452
0,0.97,0.5975
0,0.98,0.6005
0,0.99,0.60351
0,1,0.60653
0.01,0,0.36972
0.01,0.01,0.37158
0.01,0.02,0.37344
0.01,0.03,0.37531
0.01,0.04,0.37719
0.01,0.05,0.37908
0.01,0.06,0.38098
0.01,0.07,0.38289
0.01,0.08,0.38481
0.01,0.09,0.38674
0.01,0.1,0.38868
0.01,0.11,0.39063
0.01,0.12,0.39259
0.01,0.13,0.39455
0.01,0.14,0.39653
0.01,0.15,0.39852
0.01,0.16,0.40052
0.01,0.17,0.40252
0.01,0.18,0.40454
0.01,0.19,0.40657
0.01,0.2,0.40861
0.01,0.21,0.41066
0.01,0.22,0.41271
0.01,0.23,0.41478
0.01,0.24,0.41686
0.01,0.25,0.41895
0.01,0.26,0.42105
0.01,0.27,0.42316
0.01,0.28,0.42528
0.01,0.29,0.42741
0.01,0.3,0.42956
0.01,0.31,0.43171
0.01,0.32,0.43387
0.01,0.33,0.43605
0.01,0.34,0.43823
0.01,0.35,0.44043
0.01,0.36,0.44264
0.01,0.37,0.44486
0.01,0.38,0.44709
0.01,0.39,0.44933
0.01,0.4,0.45158
0.01,0.41,0.45384
0.01,0.42,0.45612
0.01,0.43,0.45841
0.01,0.44,0.4607
0.01,0.45,0.46301
0.01,0.46,0.46533
0.01,0.47,0.46767
0.01,0.48,0.47001
0.01,0.49,0.47237
0.01,0.5,0.47473
0.01,0.51,0.47711
0.01,0.52,0.47951
0.01,0.53,0.48191
0.01,0.54,0.48432
0.01,0.55,0.48675
0.01,0.56,0.48919
0.01,0.57,0.49164
0.01,0.58,0.49411
0.01,0.59,0.49659
0.01,0.6,0.49907
0.01,0.61,0.50158
0.01,0.62,0.50409
0.01,0.63,0.50662
0.01,0.64,0.50916
0.01,0.65,0.51171
0.01,0.66,0.51427
0.01,0.67,0.51685
0.01,0.68,0.51944
0.01,0.69,0.52205
0.01,0.7,0.52466
0.01,0.71,0.52729
0.01,0.72,0.52994
0.01,0.73,0.53259
0.01,0.74,0.53526
0.01,0.75,0.53794
0.01,0.76,0.54064
0.01,0.77,0.54335
0.01,0.78,0.54607
0.01,0.79,0.54881
0.01,0.8,0.55156
0.01,0.81,0.55433
0.01,0.82,0.55711
0.01,0.83,0.5599
0.01,0.84,0.5627
0.01,0.85,0.56553
0.01,0.86,0.56836
0.01,0.87,0.57121
0.01,0.88,0.57407
0.01,0.89,0.57695
0.01,0.9,0.57984
0.01,0.91,0.58275
0.01,0.92,0.58567
0.01,0.93,0.5886
0.01,0.94,0.59156
0.01,0.95,0.59452
0.01,0.96,0.5975
0.01,0.97,0.6005
0.01,0.98,0.60351
0.01,0.99,0.60653
0.01,1,0.60957
0.02,0,0.37158
0.02,0.01,0.37344
0.02,0.02,0.37531
0.02,0.03,0.37719
0.02,0.04,0.37908
0.02,0.05,0.38098
0.02,0.06,0.38289
0.02,0.07,0.38481
0.02,0.08,0.38674
0.02,0.09,0.38868
0.02,0.1,0.39063
0.02,0.11,0.39259
0.02,0.12,0.39455
0.02,0.13,0.39653
0.02,0.14,0.39852
0.02,0.15,0.40052
0.02,0.16,0.40252
0.02,0.17,0.40454
0.02,0.18,0.40657
0.02,0.19,0.40861
0.02,0.2,0.41066
0.02,0.21,0.41271
0.02,0.22,0.41478
0.02,0.23,0.41686
0.02,0.24,0.41895
0.02,0.25,0.42105
0.02,0.26,0.42316
0.02,0.27,0.42528
0.02,0.28,0.42741
0.02,0.29,0.42956
0.02,0.3,0.43171
0.02,0.31,0.43387
0.02,0.32,0.43605
0.02,0.33,0.43823
0.02,0.34,0.44043
0.02,0.35,0.44264
0.02,0.36,0.44486
0.02,0.37,0.44709
0.02,0.38,0.44933
0.02,0.39,0.45158
0.02,0.4,0.45384
0.02,0.41,0.45612
0.02,0.42,0.45841
0.02,0.43,0.4607
0.02,0.44,0.46301
0.02,0.45,0.46533
0.02,0.46,0.46767
0.02,0.47,0.47001
0.02,0.48,0.47237
0.02,0.49,0.47473
0.02,0.5,0.47711
0.02,0.51,0.47951
0.02,0.52,0.48191
0.02,0.53,0.48432
0.02,0.54,0.48675
0.02,0.55,0.48919
0.02,0.56,0.49164
0.02,0.57,0.49411
0.02,0.58,0.49659
0.02,0.59,0.49907
0.02,0.6,0.50158
0.02,0.61,0.50409
0.02,0.62,0.50662
0.02,0.63,0.50916
0.02,0.64,0.51171
0.02,0.65,0.51427
0.02,0.66,0.51685
0.02,0.67,0.51944
0.02,0.68,0.52205
0.02,0.69,0.52466
0.02,0.7,0.52729
0.02,0.71,0.52994
0.02,0.72,0.53259
0.02,0.73,0.53526
0.02,0.74,0.53794
0.02,0.75,0.54064
0.02,0.76,0.54335
0.02,0.77,0.54607
0.02,0.78,0.54881
0.02,0.79,0.55156
0.02,0.8,0.55433
0.02,0.81,0.55711
0.02,0.82,0.5599
0.02,0.83,0.5627
0.02,0.84,0.56553
0.02,0.85,0.56836
0.02,0.86,0.57121
0.02,0.87,0.57407
0.02,0.88,0.57695
0.02,0.89,0.57984
0.02,0.9,0.58275
0.02,0.91,0.58567
0.02,0.92,0.5886
0.02,0.93,0.59156
0.02,0.94,0.59452
0.02,0.95,0.5975
0.02,0.96,0.6005
0.02,0.97,0.60351
0.02,0.98,0.60653
0.02,0.99,0.60957
0.02,1,0.61263
0.03,0,0.37344
0.03,0.01,0.37531
0.03,0.02,0.37719
0.03,0.03,0.37908
0.03,0.04,0.38098
0.03,0.05,0.38289
0.03,0.06,0.38481
0.03,0.07,0.38674
0.03,0.08,0.38868
0.03,0.09,0.39063
0.03,0.1,0.39259
0.03,0.11,0.39455
0.03,0.12,0.39653
0.03,0.13,0.39852
0.03,0.14,0.40052
0.03,0.15,0.40252
0.03,0.16,0.40454
0.03,0.17,0.40657
0.03,0.18,0.40861
0.03,0.19,0.41066
0.03,0.2,0.41271
0.03,0.21,0.41478
0.03,0.22,0.41686
0.03,0.23,0.41895
0.03,0.24,0.42105
0.03,0.25,0.42316
0.03,0.26,0.42528
0.03,0.27,0.42741
0.03,0.28,0.42956
0.03,0.29,0.43171
0.03,0.3,0.43387
0.03,0.31,0.43605
0.03,0.32,0.43823
0.03,0.33,0.44043
0.03,0.34,0.44264
0.03,0.35,0.44486
0.03,0.36,0.44709
0.03,0.37,0.44933
0.03,0.38,0.45158
0.03,0.39,0.45384
0.03,0.4,0.45612
0.03,0.41,0.45841
0.03,0.42,0.4607
0.03,0.43,0.46301
0.03,0.44,0.46533
0.03,0.45,0.46767
0.03,0.46,0.47001
0.03,0.47,0.47237
0.03,0.48,0.47473
0.03,0.49,0.47711
0.03,0.5,0.47951
0.03,0.51,0.48191
0.03,0.52,0.48432
0.03,0.53,0.48675
0.03,0.54,0.48919
0.03,0.55,0.49164
0.03,0.56,0.49411
0.03,0.57,0.49659
0.03,0.58,0.49907
0.03,0.59,0.50158
0.03,0.6,0.50409
0.03,0.61,0.50662
0.03,0.62,0.50916
0.03,0.63,0.51171
0.03,0.64,0.51427
0.03,0.65,0.51685
0.03,0.66,0.51944
0.03,0.67,0.52205
0.03,0.68,0.52466
0.03,0.69,0.52729
0.03,0.7,0.52994
0.03,0.71,0.53259
0.03,0.72,0.53526
0.03,0.73,0.53794
0.03,0.74,0.54064
0.03,0.75,0.54335
0.03,0.76,0.54607
0.03,0.77,0.54881
0.03,0.78,0.55156
0.03,0.79,0.55433
0.03,0.8,0.55711
0.03,0.81,0.5599
0.03,0.82,0.5627
0.03,0.83,0.56553
0.03,0.84,0.56836
0.03,0.85,0.57121
0.03,0.86,0.57407
0.03,0.87,0.57695
0.03,0.88,0.57984
0.03,0.89,0.58275
0.03,0.9,0.58567
0.03,0.91,0.5886
0.03,0.92,0.59156
0.03,0.93,0.59452
0.03,0.94,0.5975
0.03,0.95,0.6005
0.03,0.96,0.60351
0.03,0.97,0.60653
0.03,0.98,0.60957
0.03,0.99,0.61263
0.03,1,0.6157
0.04,0,0.37531
0.04,0.01,0.37719
0.04,0.02,0.37908
0.04,0.03,0.38098
0.04,0.04,0.38289
0.04,0.05,0.38481
0.04,0.06,0.38674
0.04,0.07,0.38868
0.04,0.08,0.39063
0.04,0.09,0.39259
0.04,0.1,0.39455
0.04,0.11,0.39653
0.04,0.12,0.39852
0.04,0.13,0.40052
0.04,0.14,0.40252
0.04,0.15,0.40454
0.04,0.16,0.40657
0.04,0.17,0.40861
0.04,0.18,0.41066
0.04,0.19,0.41271
0.04,0.2,0.41478
0.04,0.21,0.41686
0.04,0.22,0.41895
0.04,0.23,0.42105
0.04,0.24,0.42316
0.04,0.25,0.42528
0.04,0.26,0.42741
0.04,0.27,0.42956
0.04,0.28,0.43171
0.04,0.29,0.43387
0.04,0.3,0.43605
0.04,0.31,0.43823
0.04,0.32,0.44043
0.04,0.33,0.44264
0.04,0.34,0.44486
0.04,0.35,0.44709
0.04,0.36,0.44933
0.04,0.37,0.45158
0.04,0.38,0.45384
0.04,0.39,0.45612
0.04,0.4,0.45841
0.04,0.41,0.4607
0.04,0.42,0.46301
0.04,0.43,0.46533
0.04,0.44,0.46767
0.04,0.45,0.47001
0.04,0.46,0.47237
0.04,0.47,0.47473
0.04,0.48,0.47711
0.04,0.49,0.47951
0.04,0.5,0.48191
0.04,0.51,0.48432
0.04,0.52,0.48675
0.04,0.53,0.48919
0.04,0.54,0.49164
0.04,0.55,0.49411
0.04,0.56,0.49659
0.04,0.57,0.49907
0.04,0.58,0.50158
0.04,0.59,0.50409
0.04,0.6,0.50662
0.04,0.61,0.50916
0.04,0.62,0.51171
0.04,0.63,0.51427
0.04,0.64,0.51685
0.04,0.65,0.51944
0.04,0.66,0.52205
0.04,0.67,0.52466
0.04,0.68,0.52729
0.04,0.69,0.52994
0.04,0.7,0.53259
0.04,0.71,0.53526
0.04,0.72,0.53794
0.04,0.73,0.54064
0.04,0.74,0.54335
0.04,0.75,0.54607
0.04,0.76,0.54881
0.04,0.77,0.55156
0.04,0.78,0.55433
0.04,0.79,0.55711
0.04,0.8,0.5599
0.04,0.81,0.5627
0.04,0.82,0.56553
0.04,0.83,0.56836
0.04,0.84,0.57121
0.04,0.85,0.57407
0.04,0.86,0.57695
0.04,0.87,0.57984
0.04,0.88,0.58275
0.04,0.89,0.58567
0.04,0.9,0.5886
0.04,0.91,0.59156
0.04,0.92,0.59452
0.04,0.93,0.5975
0.04,0.94,0.6005
0.04,0.95,0.60351
0.04,0.96,0.60653
0.04,0.97,0.60957
0.04,0.98,0.61263
0.04,0.99,0.6157
0.04,1,0.61878
0.05,0,0.37719
0.05,0.01,0.37908
0.05,0.02,0.38098
0.05,0.03,0.38289
0.05,0.04,0.38481
0.05,0.05,0.38674
0.05,0.06,0.38868
0.05,0.07,0.39063
0.05,0.08,0.39259
0.05,0.09,0.39455
0.05,0.1,0.39653
0.05,0.11,0.39852
0.05,0.12,0.40052
0.05,0.13,0.40252
0.05,0.14,0.40454
0.05,0.15,0.40657
0.05,0.16,0.40861
0.05,0.17,0.41066
0.05,0.18,0.41271
0.05,0.19,0.41478
0.05,0.2,0.41686
0.05,0.21,0.41895
0.05,0.22,0.42105
0.05,0.23,0.42316
0.05,0.24,0.42528
0.05,0.25,0.42741
0.05,0.26,0.42956
0.05,0.27,0.43171
0.05,0.28,0.43387
0.05,0.29,0.43605
0.05,0.3,0.43823
0.05,0.31,0.44043
0.05,0.32,0.44264
0.05,0.33,0.44486
0.05,0.34,0.44709
0.05,0.35,0.44933
0.05,0.36,0.45158
0.05,0.37,0.45384
0.05,0.38,0.45612
0.05,0.39,0.45841
0.05,0.4,0.4607
0.05,0.41,0.46301
0.05,0.42,0.46533
0.05,0.43,0.46767
0.05,0.44,0.47001
0.05,0.45,0.47237
0.05,0.46,0.47473
0.05,0.47,0.47711
0.05,0.48,0.47951
0.05,0.49,0.48191
0.05,0.5,0.48432
0.05,0.51,0.48675
0.05,0.52,0.48919
0.05,0.53,0.49164
0.05,0.54,0.49411
0.05,0.55,0.49659
0.05,0.56,0.49907
0.05,0.57,0.50158
0.05,0.58,0.50409
0.05,0.59,0.50662
0.05,0.6,0.50916
0.05,0.61,0.51171
0.05,0.62,0.51427
0.05,0.63,0.51685
0.05,0.64,0.51944
0.05,0.65,0.52205
0.05,0.66,0.52466
0.05,0.67,0.52729
0.05,0.68,0.52994
0.05,0.69,0.53259
0.05,0.7,0.53526
0.05,0.71,0.53794
0.05,0.72,0.54064
0.05,0.73,0.54335
0.05,0.74,0.54607
0.05,0.75,0.54881
0.05,0.76,0.55156
0.05,0.77,0.55433
0.05,0.78,0.55711
0.05,0.79,0.5599
0.05,0.8,0.5627
0.05,0.81,0.56553
0.05,0.82,0.56836
0.05,0.83,0.57121
0.05,0.84,0.57407
0.05,0.85,0.57695
0.05,0.86,0.57984
0.05,0.87,0.58275
0.05,0.88,0.58567
0.05,0.89,0.5886
0.05,0.9,0.59156
0.05,0.91,0.59452
0.05,0.92,0.5975
0.05,0.93,0.6005
0.05,0.94,0.60351
0.05,0.95,0.60653
0.05,0.96,0.60957
0.05,0.97,0.61263
0.05,0.98,0.6157
0.05,0.99,0.61878
0.05,1,0.62189
0.06,0,0.37908
0.06,0.01,0.38098
0.06,0.02,0.38289
0.06,0.03,0.38481
0.06,0.04,0.38674
0.06,0.05,0.38868
0.06,0.06,0.39063
0.06,0.07,0.39259
0.06,0.08,0.39455
0.06,0.09,0.39653
0.06,0.1,0.39852
0.06,0.11,0.40052
0.06,0.12,0.40252
0.06,0.13,0.40454
0.06,0.14,0.40657
0.06,0.15,0.40861
0.06,0.16,0.41066
0.06,0.17,0.41271
0.06,0.18,0.41478
0.06,0.19,0.41686
0.06,0.2,0.41895
0.06,0.21,0.42105
0.06,0.22,0.42316
0.06,0.23,0.42528
0.06,0.24,0.42741
0.06,0.25,0.42956
0.06,0.26,0.43171
0.06,0.27,0.43387
0.06,0.28,0.43605
0.06,0.29,0.43823
0.06,0.3,0.44043
0.06,0.31,0.44264
0.06,0.32,0.44486
0.06,0.33,0.44709
0.06,0.34,0.44933
0.06,0.35,0.45158
0.06,0.36,0.45384
0.06,0.37,0.45612
0.06,0.38,0.45841
0.06,0.39,0.4607
0.06,0.4,0.46301
0.06,0.41,0.46533
0.06,0.42,0.46767
0.06,0.43,0.47001
0.06,0.44,0.47237
0.06,0.45,0.47473
0.06,0.46,0.47711
0.06,0.47,0.47951
0.06,0.48,0.48191
0.06,0.49,0.48432
0.06,0.5,0.48675
0.06,0.51,0.48919
0.06,0.52,0.49164
0.06,0.53,0.49411
0.06,0.54,0.49659
0.06,0.55,0.49907
0.06,0.56,0.50158
0.06,0.57,0.50409
0.06,0.58,0.50662
0.06,0.59,0.50916
0.06,0.6,0.51171
0.06,0.61,0.51427
0.06,0.62,0.51685
0.06,0.63,0.51944
0.06,0.64,0.52205
0.06,0.65,0.52466
0.06,0.66,0.52729
0.06,0.67,0.52994
0.06,0.68,0.53259
0.06,0.69,0.53526
0.06,0.7,0.53794
0.06,0.71,0.54064
0.06,0.72,0.54335
0.06,0.73,0.54607
0.06,0.74,0.54881
0.06,0.75,0.55156
0.06,0.76,0.55433
0.06,0.77,0.55711
0.06,0.78,0.5599
0.06,0.79,0.5627
0.06,0.8,0.56553
0.06,0.81,0.56836
0.06,0.82,0.57121
0.06,0.83,0.57407
0.06,0.84,0.57695
0.06,0.85,0.57984
0.06,0.86,0.58275
0.06,0.87,0.58567
0.06,0.88,0.5886
0.06,0.89,0.59156
0.06,0.9,0.59452
0.06,0.91,0.5975
0.06,0.92,0.6005
0.06,0.93,0.60351
0.06,0.94,0.60653
0.06,0.95,0.60957
0.06,0.96,0.61263
0.06,0.97,0.6157
0.06,0.98,0.61878
0.06,0.99,0.62189
0.06,1,0.625
0.07,0,0.38098
0.07,0.01,0.38289
0.07,0.02,0.38481
0.07,0.03,0.38674
0.07,0.04,0.38868
0.07,0.05,0.39063
0.07,0.06,0.39259
0.07,0.07,0.39455
0.07,0.08,0.39653
0.07,0.09,0.39852
0.07,0.1,0.40052
0.07,0.11,0.40252
0.07,0.12,0.40454
0.07,0.13,0.40657
0.07,0.14,0.40861
0.07,0.15,0.41066
0.07,0.16,0.41271
0.07,0.17,0.41478
0.07,0.18,0.41686
0.07,0.19,0.41895
0.07,0.2,0.42105
0.07,0.21,0.42316
0.07,0.22,0.42528
0.07,0.23,0.42741
0.07,0.24,0.42956
0.07,0.25,0.43171
0.07,0.26,0.43387
0.07,0.27,0.43605
0.07,0.28,0.43823
0.07,0.29,0.44043
0.07,0.3,0.44264
0.07,0.31,0.44486
0.07,0.32,0.44709
0.07,0.33,0.44933
0.07,0.34,0.45158
0.07,0.35,0.45384
0.07,0.36,0.45612
0.07,0.37,0.45841
0.07,0.38,0.4607
0.07,0.39,0.46301
0.07,0.4,0.46533
0.07,0.41,0.46767
0.07,0.42,0.47001
0.07,0.43,0.47237
0.07,0.44,0.47473
0.07,0.45,0.47711
0.07,0.46,0.47951
0.07,0.47,0.48191
0.07,0.48,0.48432
0.07,0.49,0.48675
0.07,0.5,0.48919
0.07,0.51,0.49164
0.07,0.52,0.49411
0.07,0.53,0.49659
0.07,0.54,0.49907
0.07,0.55,0.50158
0.07,0.56,0.50409
0.07,0.57,0.50662
0.07,0.58,0.50916
0.07,0.59,0.51171
0.07,0.6,0.51427
0.07,0.61,0.51685
0.07,0.62,0.51944
0.07,0.63,0.52205
0.07,0.64,0.52466
0.07,0.65,0.52729
0.07,0.66,0.52994
0.07,0.67,0.53259
0.07,0.68,0.53526
0.07,0.69,0.53794
0.07,0.7,0.54064
0.07,0.71,0.54335
0.07,0.72,0.54607
0.07,0.73,0.54881
0.07,0.74,0.55156
0.07,0.75,0.55433
0.07,0.76,0.55711
0.07,0.77,0.5599
0.07,0.78,0.5627
0.07,0.79,0.56553
0.07,0.8,0.56836
0.07,0.81,0.57121
0.07,0.82,0.57407
0.07,0.83,0.57695
0.07,0.84,0.57984
0.07,0.85,0.58275
0.07,0.86,0.58567
0.07,0.87,0.5886
0.07,0.88,0.59156
0.07,0.89,0.59452
0.07,0.9,0.5975
0.07,0.91,0.6005
0.07,0.92,0.60351
0.07,0.93,0.60653
0.07,0.94,0.60957
0.07,0.95,0.61263
0.07,0.96,0.6157
0.07,0.97,0.61878
0.07,0.98,0.62189
0.07,0.99,0.625
0.07,1,0.62814
0.08,0,0.38289
0.08,0.01,0.38481
0.08,0.02,0.38674
0.08,0.03,0.38868
0.08,0.04,0.39063
0.08,0.05,0.39259
0.08,0.06,0.39455
0.08,0.07,0.39653
0.08,0.08,0.39852
0.08,0.09,0.40052
0.08,0.1,0.40252
0.08,0.11,0.40454
0.08,0.12,0.40657
0.08,0.13,0.40861
0.08,0.14,0.41066
0.08,0.15,0.41271
0.08,0.16,0.41478
0.08,0.17,0.41686
0.08,0.18,0.41895
0.08,0.19,0.42105
0.08,0.2,0.42316
0.08,0.21,0.42528
0.08,0.22,0.42741
0.08,0.23,0.42956
0.08,0.24,0.43171
0.08,0.25,0.43387
0.08,0.26,0.43605
0.08,0.27,0.43823
0.08,0.28,0.44043
0.08,0.29,0.44264
0.08,0.3,0.44486
0.08,0.31,0.44709
0.08,0.32,0.44933
0.08,0.33,0.45158
0.08,0.34,0.45384
0.08,0.35,0.45612
0.08,0.36,0.45841
0.08,0.37,0.4607
0.08,0.38,0.46301
0.08,0.39,0.46533
0.08,0.4,0.46767
0.08,0.41,0.47001
0.08,0.42,0.47237
0.08,0.43,0.47473
0.08,0.44,0.47711
0.08,0.45,0.47951
0.08,0.46,0.48191
0.08,0.47,0.48432
0.08,0.48,0.48675
0.08,0.49,0.48919
0.08,0.5,0.49164
0.08,0.51,0.49411
0.08,0.52,0.49659
0.08,0.53,0.49907
0.08,0.54,0.50158
0.08,0.55,0.50409
0.08,0.56,0.50662
0.08,0.57,0.50916
0.08,0.58,0.51171
0.08,0.59,0.51427
0.08,0.6,0.51685
0.08,0.61,0.51944
0.08,0.62,0.52205
0.08,0.63,0.52466
0.08,0.64,0.52729
0.08,0.65,0.52994
0.08,0.66,0.53259
0.08,0.67,0.53526
0.08,0.68,0.53794
0.08,0.69,0.54064
0.08,0.7,0.54335
0.08,0.71,0.54607
0.08,0.72,0.54881
0.08,0.73,0.55156
0.08,0.74,0.55433
0.08,0.75,0.55711
0.08,0.76,0.5599
0.08,0.77,0.5627
0.08,0.78,0.56553
0.08,0.79,0.56836
0.08,0.8,0.57121
0.08,0.81,0.57407
0.08,0.82,0.57695
0.08,0.83,0.57984
0.08,0.84,0.58275
0.08,0.85,0.58567
0.08,0.86,0.5886
0.08,0.87,0.59156
0.08,0.88,0.59452
0.08,0.89,0.5975
0.08,0.9,0.6005
0.08,0.91,0.60351
0.08,0.92,0.60653
0.08,0.93,0.60957
0.08,0.94,0.61263
0.08,0.95,0.6157
0.08,0.96,0.61878
0.08,0.97,0.62189
0.08,0.98,0.625
0.08,0.99,0.62814
0.08,1,0.63128
0.09,0,0.38481
0.09,0.01,0.38674
0.09,0.02,0.38868
0.09,0.03,0.39063
0.09,0.04,0.39259
0.09,0.05,0.39455
0.09,0.06,0.39653
0.09,0.07,0.39852
0.09,0.08,0.40052
0.09,0.09,0.40252
0.09,0.1,0.40454
0.09,0.11,0.40657
0.09,0.12,0.40861
0.09,0.13,0.41066
0.09,0.14,0.41271
0.09,0.15,0.41478
0.09,0.16,0.41686
0.09,0.17,0.41895
0.09,0.18,0.42105
0.09,0.19,0.42316
0.09,0.2,0.42528
0.09,0.21,0.42741
0.09,0.22,0.42956
0.09,0.23,0.43171
0.09,0.24,0.43387
0.09,0.25,0.43605
0.09,0.26,0.43823
0.09,0.27,0.44043
0.09,0.28,0.44264
0.09,0.29,0.44486
0.09,0.3,0.44709
0.09,0.31,0.44933
0.09,0.32,0.45158
0.09,0.33,0.45384
0.09,0.34,0.45612
0.09,0.35,0.45841
0.09,0.36,0.4607
0.09,0.37,0.46301
0.09,0.38,0.46533
0.09,0.39,0.46767
0.09,0.4,0.47001
0.09,0.41,0.47237
0.09,0.42,0.47473
0.09,0.43,0.47711
0.09,0.44,0.47951
0.09,0.45,0.48191
0.09,0.46,0.48432
0.09,0.47,0.48675
0.09,0.48,0.48919
0.09,0.49,0.49164
0.09,0.5,0.49411
0.09,0.51,0.49659
0.09,0.52,0.49907
0.09,0.53,0.50158
0.09,0.54,0.50409
0.09,0.55,0.50662
0.09,0.56,0.50916
0.09,0.57,0.51171
0.09,0.58,0.51427
0.09,0.59,0.51685
0.09,0.6,0.51944
0.09,0.61,0.52205
0.09,0.62,0.52466
0.09,0.63,0.52729
0.09,0.64,0.52994
0.09,0.65,0.53259
0.09,0.66,0.53526
0.09,0.67,0.53794
0.09,0.68,0.54064
0.09,0.69,0.54335
0.09,0.7,0.54607
0.09,0.71,0.54881
0.09,0.72,0.55156
0.09,0.73,0.55433
0.09,0.74,0.55711
0.09,0.75,0.5599
0.09,0.76,0.5627
0.09,0.77,0.56553
0.09,0.78,0.56836
0.09,0.79,0.57121
0.09,0.8,0.57407
0.09,0.81,0.57695
0.09,0.82,0.57984
0.09,0.83,0.58275
0.09,0.84,0.58567
0.09,0.85,0.5886
0.09,0.86,0.59156
0.09,0.87,0.59452
0.09,0.88,0.5975
0.09,0.89,0.6005
0.09,0.9,0.60351
0.09,0.91,0.60653
0.09,0.92,0.60957
0.09,0.93,0.61263
0.09,0.94,0.6157
0.09,0.95,0.61878
0.09,0.96,0.62189
0.09,0.97,0.625
0.09,0.98,0.62814
0.09,0.99,0.63128
0.09,1,0.63445
0.1,0,0.38674
0.1,0.01,0.38868
0.1,0.02,0.39063
0.1,0.03,0.39259
0.1,0.04,0.39455
0.1,0.05,0.39653
0.1,0.06,0.39852
0.1,0.07,0.40052
0.1,0.08,0.40252
0.1,0.09,0.40454
0.1,0.1,0.40657
0.1,0.11,0.40861
0.1,0.12,0.41066
0.1,0.13,0.41271
0.1,0.14,0.41478
0.1,0.15,0.41686
0.1,0.16,0.41895
0.1,0.17,0.42105
0.1,0.18,0.42316
0.1,0.19,0.42528
0.1,0.2,0.42741
0.1,0.21,0.42956
0.1,0.22,0.43171
0.1,0.23,0.43387
0.1,0.24,0.43605
0.1,0.25,0.43823
0.1,0.26,0.44043
0.1,0.27,0.44264
0.1,0.28,0.44486
0.1,0.29,0.44709
0.1,0.3,0.44933
0.1,0.31,0.45158
0.1,0.32,0.45384
0.1,0.33,0.45612
0.1,0.34,0.45841
0.1,0.35,0.4607
0.1,0.36,0.46301
0.1,0.37,0.46533
0.1,0.38,0.46767
0.1,0.39,0.47001
0.1,0.4,0.47237
0.1,0.41,0.47473
0.1,0.42,0.47711
0.1,0.43,0.47951
0.1,0.44,0.48191
0.1,0.45,0.48432
0.1,0.46,0.48675
0.1,0.47,0.48919
0.1,0.48,0.49164
0.1,0.49,0.49411
0.1,0.5,0.49659
0.1,0.51,0.49907
0.1,0.52,0.50158
0.1,0.53,0.50409
0.1,0.54,0.50662
0.1,0.55,0.50916
0.1,0.56,0.51171
0.1,0.57,0.51427
0.1,0.58,0.51685
0.1,0.59,0.51944
0.1,0.6,0.52205
0.1,0.61,0.52466
0.1,0.62,0.52729
0.1,0.63,0.52994
0.1,0.64,0.53259
0.1,0.65,0.53526
0.1,0.66,0.53794
0.1,0.67,0.54064
0.1,0.68,0.54335
0.1,0.69,0.54607
0.1,0.7,0.54881
0.1,0.71,0.55156
0.1,0.72,0.55433
0.1,0.73,0.55711
0.1,0.74,0.5599
0.1,0.75,0.5627
0.1,0.76,0.56553
0.1,0.77,0.56836
0.1,0.78,0.57121
0.1,0.79,0.57407
0.1,0.8,0.57695
0.1,0.81,0.57984
0.1,0.82,0.58275
0.1,0.83,0.58567
0.1,0.84,0.5886
0.1,0.85,0.59156
0.1,0.86,0.59452
0.1,0.87,0.5975
0.1,0.88,0.6005
0.1,0.89,0.60351
0.1,0.9,0.60653
0.1,0.91,0.60957
0.1,0.92,0.61263
0.1,0.93,0.6157
0.1,0.94,0.61878
0.1,0.95,0.62189
0.1,0.96,0.625
0.1,0.97,0.62814
0.1,0.98,0.63128
0.1,0.99,0.63445
0.1,1,0.63763
0.11,0,0.38868
0.11,0.01,0.39063
0.11,0.02,0.39259
0.11,0.03,0.39455
0.11,0.04,0.39653
0.11,0.05,0.39852
0.11,0.06,0.40052
0.11,0.07,0.40252
0.11,0.08,0.40454
0.11,0.09,0.40657
0.11,0.1,0.40861
0.11,0.11,0.41066
0.11,0.12,0.41271
0.11,0.13,0.41478
0.11,0.14,0.41686
0.11,0.15,0.41895
0.11,0.16,0.42105
0.11,0.17,0.42316
0.11,0.18,0.42528
0.11,0.19,0.42741
0.11,0.2,0.42956
0.11,0.21,0.43171
0.11,0.22,0.43387
0.11,0.23,0.43605
0.11,0.24,0.43823
0.11,0.25,0.44043
0.11,0.26,0.44264
0.11,0.27,0.44486
0.11,0.28,0.44709
0.11,0.29,0.44933
0.11,0.3,0.45158
0.11,0.31,0.45384
0.11,0.32,0.45612
0.11,0.33,0.45841
0.11,0.34,0.4607
0.11,0.35,0.46301
0.11,0.36,0.46533
0.11,0.37,0.46767
0.11,0.38,0.47001
0.11,0.39,0.47237
0.11,0.4,0.47473
0.11,0.41,0.47711
0.11,0.42,0.47951
0.11,0.43,0.48191
0.11,0.44,0.48432
0.11,0.45,0.48675
0.11,0.46,0.48919
0.11,0.47,0.49164
0.11,0.48,0.49411
0.11,0.49,0.49659
0.11,0.5,0.49907
0.11,0.51,0.50158
0.11,0.52,0.50409
0.11,0.53,0.50662
0.11,0.54,0.50916
0.11,0.55,0.51171
0.11,0.56,0.51427
0.11,0.57,0.51685
0.11,0.58,0.51944
0.11,0.59,0.52205
0.11,0.6,0.52466
0.11,0.61,0.52729
0.11,0.62,0.52994
0.11,0.63,0.53259
0.11,0.64,0.53526
0.11,0.65,0.53794
0.11,0.66,0.54064
0.11,0.67,0.54335
0.11,0.68,0.54607
0.11,0.69,0.54881
0.11,0.7,0.55156
0.11,0.71,0.55433
0.11,0.72,0.55711
0.11,0.73,0.5599
0.11,0.74,0.5627
0.11,0.75,0.56553
0.11,0.76,0.56836
0.11,0.77,0.57121
0.11,0.78,0.57407
0.11,0.79,0.57695
0.11,0.8,0.57984
0.11,0.81,0.58275
0.11,0.82,0.58567
0.11,0.83,0.5886
0.11,0.84,0.59156
0.11,0.85,0.59452
0.11,0.86,0.5975
0.11,0.87,0.6005
0.11,0.88,0.60351
0.11,0.89,0.60653
0.11,0.9,0.60957
0.11,0.91,0.61263
0.11,0.92,0.6157
0.11,0.93,0.61878
0.11,0.94,0.62189
0.11,0.95,0.625
0.11,0.96,0.62814
0.11,0.97,0.63128
0.11,0.98,0.63445
0.11,0.99,0.63763
0.11,1,0.64082
0.12,0,0.39063
0.12,0.01,0.39259
0.12,0.02,0.39455
0.12,0.03,0.39653
0.12,0.04,0.39852
0.12,0.05,0.40052
0.12,0.06,0.40252
0.12,0.07,0.40454
0.12,0.08,0.40657
0.12,0.09,0.40861
0.12,0.1,0.41066
0.12,0.11,0.41271
0.12,0.12,0.41478
0.12,0.13,0.41686
0.12,0.14,0.41895
0.12,0.15,0.42105
0.12,0.16,0.42316
0.12,0.17,0.42528
0.12,0.18,0.42741
0.12,0.19,0.42956
0.12,0.2,0.43171
0.12,0.21,0.43387
0.12,0.22,0.43605
0.12,0.23,0.43823
0.12,0.24,0.44043
0.12,0.25,0.44264
0.12,0.26,0.44486
0.12,0.27,0.44709
0.12,0.28,0.44933
0.12,0.29,0.45158
0.12,0.3,0.45384
0.12,0.31,0.45612
0.12,0.32,0.45841
0.12,0.33,0.4607
0.12,0.34,0.46301
0.12,0.35,0.46533
0.12,0.36,0.46767
0.12,0.37,0.47001
0.12,0.38,0.47237
0.12,0.39,0.47473
0.12,0.4,0.47711
0.12,0.41,0.47951
0.12,0.42,0.48191
0.12,0.43,0.48432
0.12,0.44,0.48675
0.12,0.45,0.48919
0.12,0.46,0.49164
0.12,0.47,0.49411
0.12,0.48,0.49659
0.12,0.49,0.49907
0.12,0.5,0.50158
0.12,0.51,0.50409
0.12,0.52,0.50662
0.12,0.53,0.50916
0.12,0.54,0.51171
0.12,0.55,0.51427
0.12,0.56,0.51685
0.12,0.57,0.51944
0.12,0.58,0.52205
0.12,0.59,0.52466
0.12,0.6,0.52729
0.12,0.61,0.52994
0.12,0.62,0.53259
0.12,0.63,0.53526
0.12,0.64,0.53794
0.12,0.65,0.54064
0.12,0.66,0.54335
0.12,0.67,0.54607
0.12,0.68,0.54881
0.12,0.69,0.55156
0.12,0.7,0.55433
0.12,0.71,0.55711
0.12,0.72,0.5599
0.12,0.73,0.5627
0.12,0.74,0.56553
0.12,0.75,0.56836
0.12,0.76,0.57121
0.12,0.77,0.57407
0.12,0.78,0.57695
0.12,0.79,0.57984
0.12,0.8,0.58275
0.12,0.81,0.58567
0.12,0.82,0.5886
0.12,0.83,0.59156
0.12,0.84,0.59452
0.12,0.85,0.5975
0.12,0.86,0.6005
0.12,0.87,0.60351
0.12,0.88,0.60653
0.12,0.89,0.60957
0.12,0.9,0.61263
0.12,0.91,0.6157
0.12,0.92,0.61878
0.12,0.93,0.62189
0.12,0.94,0.625
0.12,0.95,0.62814
0.12,0.96,0.63128
0.12,0.97,0.63445
0.12,0.98,0.63763
0.12,0.99,0.64082
0.12,1,0.64404
0.13,0,0.39259
0.13,0.01,0.39455
0.13,0.02,0.39653
0.13,0.03,0.39852
0.13,0.04,0.40052
0.13,0.05,0.40252
0.13,0.06,0.40454
0.13,0.07,0.40657
0.13,0.08,0.40861
0.13,0.09,0.41066
0.13,0.1,0.41271
0.13,0.11,0.41478
0.13,0.12,0.41686
0.13,0.13,0.41895
0.13,0.14,0.42105
0.13,0.15,0.42316
0.13,0.16,0.42528
0.13,0.17,0.42741
0.13,0.18,0.42956
0.13,0.19,0.43171
0.13,0.2,0.43387
0.13,0.21,0.43605
0.13,0.22,0.43823
0.13,0.23,0.44043
0.13,0.24,0.44264
0.13,0.25,0.44486
0.13,0.26,0.44709
0.13,0.27,0.44933
0.13,0.28,0.45158
0.13,0.29,0.45384
0.13,0.3,0.45612
0.13,0.31,0.45841
0.13,0.32,0.4607
0.13,0.33,0.46301
0.13,0.34,0.46533
0.13,0.35,0.46767
0.13,0.36,0.47001
0.13,0.37,0.47237
0.13,0.38,0.47473
0.13,0.39,0.47711
0.13,0.4,0.47951
0.13,0.41,0.48191
0.13,0.42,0.48432
0.13,0.43,0.48675
0.13,0.44,0.48919
0.13,0.45,0.49164
0.13,0.46,0.49411
0.13,0.47,0.49659
0.13,0.48,0.49907
0.13,0.49,0.50158
0.13,0.5,0.50409
0.13,0.51,0.50662
0.13,0.52,0.50916
0.13,0.53,0.51171
0.13,0.54,0.51427
0.13,0.55,0.51685
0.13,0.56,0.51944
0.13,0.57,0.52205
0.13,0.58,0.52466
0.13,0.59,0.52729
0.13,0.6,0.52994
0.13,0.61,0.53259
0.13,0.62,0.53526
0.13,0.63,0.53794
0.13,0.64,0.54064
0.13,0.65,0.54335
0.13,0.66,0.54607
0.13,0.67,0.54881
0.13,0.68,0.55156
0.13,0.69,0.55433
0.13,0.7,0.55711
0.13,0.71,0.5599
0.13,0.72,0.5627
0.13,0.73,0.56553
0.13,0.74,0.56836
0.13,0.75,0.57121
0.13,0.76,0.57407
0.13,0.77,0.57695
0.13,0.78,0.57984
0.13,0.79,0.58275
0.13,0.8,0.58567
0.13,0.81,0.5886
0.13,0.82,0.59156
0.13,0.83,0.59452
0.13,0.84,0.5975
0.13,0.85,0.6005
0.13,0.86,0.60351
0.13,0.87,0.60653
0.13,0.88,0.60957
0.13,0.89,0.61263
0.13,0.9,0.6157
0.13,0.91,0.61878
0.13,0.92,0.62189
0.13,0.93,0.625
0.13,0.94,0.62814
0.13,0.95,0.63128
0.13,0.96,0.63445
0.13,0.97,0.63763
0.13,0.98,0.64082
0.13,0.99,0.64404
0.13,1,0.64726
0.14,0,0.39455
0.14,0.01,0.39653
0.14,0.02,0.39852
0.14,0.03,0.40052
0.14,0.04,0.40252
0.14,0.05,0.40454
0.14,0.06,0.40657
0.14,0.07,0.40861
0.14,0.08,0.41066
0.14,0.09,0.41271
0.14,0.1,0.41478
0.14,0.11,0.41686
0.14,0.12,0.41895
0.14,0.13,0.42105
0.14,0.14,0.42316
0.14,0.15,0.42528
0.14,0.16,0.42741
0.14,0.17,0.42956
0.14,0.18,0.43171
0.14,0.19,0.43387
0.14,0.2,0.43605
0.14,0.21,0.43823
0.14,0.22,0.44043
0.14,0.23,0.44264
0.14,0.24,0.44486
0.14,0.25,0.44709
0.14,0.26,0.44933
0.14,0.27,0.45158
0.14,0.28,0.45384
0.14,0.29,0.45612
0.14,0.3,0.45841
0.14,0.31,0.4607
0.14,0.32,0.46301
0.14,0.33,0.46533
0.14,0.34,0.46767
0.14,0.35,0.47001
0.14,0.36,0.47237
0.14,0.37,0.47473
0.14,0.38,0.47711
0.14,0.39,0.47951
0.14,0.4,0.48191
0.14,0.41,0.48432
0.14,0.42,0.48675
0.14,0.43,0.48919
0.14,0.44,0.49164
0.14,0.45,0.49411
0.14,0.46,0.49659
0.14,0.47,0.49907
0.14,0.48,0.50158
0.14,0.49,0.50409
0.14,0.5,0.50662
0.14,0.51,0.50916
0.14,0.52,0.51171
0.14,0.53,0.51427
0.14,0.54,0.51685
0.14,0.55,0.51944
0.14,0.56,0.52205
0.14,0.57,0.52466
0.14,0.58,0.52729
0.14,0.59,0.52994
0.14,0.6,0.53259
0.14,0.61,0.53526
0.14,0.62,0.53794
0.14,0.63,0.54064
0.14,0.64,0.54335
0.14,0.65,0.54607
0.14,0.66,0.54881
0.14,0.67,0.55156
0.14,0.68,0.55433
0.14,0.69,0.55711
0.14,0.7,0.5599
0.14,0.71,0.5627
0.14,0.72,0.56553
0.14,0.73,0.56836
0.14,0.74,0.57121
0.14,0.75,0.57407
0.14,0.76,0.57695
0.14,0.77,0.57984
0.14,0.78,0.58275
0.14,0.79,0.58567
0.14,0.8,0.5886
0.14,0.81,0.59156
0.14,0.82,0.59452
0.14,0.83,0.5975
0.14,0.84,0.6005
0.14,0.85,0.60351
0.14,0.86,0.60653
0.14,0.87,0.60957
0.14,0.88,0.61263
0.14,0.89,0.6157
0.14,0.9,0.61878
0.14,0.91,0.62189
0.14,0.92,0.625
0.14,0.93,0.62814
0.14,0.94,0.63128
0.14,0.95,0.63445
0.14,0.96,0.63763
0.14,0.97,0.64082
0.14,0.98,0.64404
0.14,0.99,0.64726
0.14,1,0.65051
0.15,0,0.39653
0.15,0.01,0.39852
0.15,0.02,0.40052
0.15,0.03,0.40252
0.15,0.04,0.40454
0.15,0.05,0.40657
0.15,0.06,0.40861
0.15,0.07,0.41066
0.15,0.08,0.41271
0.15,0.09,0.41478
0.15,0.1,0.41686
0.15,0.11,0.41895
0.15,0.12,0.42105
0.15,0.13,0.42316
0.15,0.14,0.42528
0.15,0.15,0.42741
0.15,0.16,0.42956
0.15,0.17,0.43171
0.15,0.18,0.43387
0.15,0.19,0.43605
0.15,0.2,0.43823
0.15,0.21,0.44043
0.15,0.22,0.44264
0.15,0.23,0.44486
0.15,0.24,0.44709
0.15,0.25,0.44933
0.15,0.26,0.45158
0.15,0.27,0.45384
0.15,0.28,0.45612
0.15,0.29,0.45841
0.15,0.3,0.4607
0.15,0.31,0.46301
0.15,0.32,0.46533
0.15,0.33,0.46767
0.15,0.34,0.47001
0.15,0.35,0.47237
0.15,0.36,0.47473
0.15,0.37,0.47711
0.15,0.38,0.47951
0.15,0.39,0.48191
0.15,0.4,0.48432
0.15,0.41,0.48675
0.15,0.42,0.48919
0.15,0.43,0.49164
0.15,0.44,0.49411
0.15,0.45,0.49659
0.15,0.46,0.49907
0.15,0.47,0.50158
0.15,0.48,0.50409
0.15,0.49,0.50662
0.15,0.5,0.50916
0.15,0.51,0.51171
0.15,0.52,0.51427
0.15,0.53,0.51685
0.15,0.54,0.51944
0.15,0.55,0.52205
0.15,0.56,0.52466
0.15,0.57,0.52729
0.15,0.58,0.52994
0.15,0.59,0.53259
0.15,0.6,0.53526
0.15,0.61,0.53794
0.15,0.62,0.54064
0.15,0.63,0.54335
0.15,0.64,0.54607
0.15,0.65,0.54881
0.15,0.66,0.55156
0.15,0.67,0.55433
0.15,0.68,0.55711
0.15,0.69,0.5599
0.15,0.7,0.5627
0.15,0.71,0.56553
0.15,0.72,0.56836
0.15,0.73,0.57121
0.15,0.74,0.57407
0.15,0.75,0.57695
0.15,0.76,0.57984
0.15,0.77,0.58275
0.15,0.78,0.58567
0.15,0.79,0.5886
0.15,0.8,0.59156
0.15,0.81,0.59452
0.15,0.82,0.5975
0.15,0.83,0.6005
0.15,0.84,0.60351
0.15,0.85,0.60653
0.15,0.86,0.60957
0.15,0.87,0.61263
0.15,0.88,0.6157
0.15,0.89,0.61878
0.15,0.9,0.62189
0.15,0.91,0.625
0.15,0.92,0.62814
0.15,0.93,0.63128
0.15,0.94,0.63445
0.15,0.95,0.63763
0.15,0.96,0.64082
0.15,0.97,0.64404
0.15,0.98,0.64726
0.15,0.99,0.65051
0.15,1,0.65377
0.16,0,0.39852
0.16,0.01,0.40052
0.16,0.02,0.40252
0.16,0.03,0.40454
0.16,0.04,0.40657
0.16,0.05,0.40861
0.16,0.06,0.41066
0.16,0.07,0.41271
0.16,0.08,0.41478
0.16,0.09,0.41686
0.16,0.1,0.41895
0.16,0.11,0.42105
0.16,0.12,0.42316
0.16,0.13,0.42528
0.16,0.14,0.42741
0.16,0.15,0.42956
0.16,0.16,0.43171
0.16,0.17,0.43387
0.16,0.18,0.43605
0.16,0.19,0.43823
0.16,0.2,0.44043
0.16,0.21,0.44264
0.16,0.22,0.44486
0.16,0.23,0.44709
0.16,0.24,0.44933
0.16,0.25,0.45158
0.16,0.26,0.45384
0.16,0.27,0.45612
0.16,0.28,0.45841
0.16,0.29,0.4607
0.16,0.3,0.46301
0.16,0.31,0.46533
0.16,0.32,0.46767
0.16,0.33,0.47001
0.16,0.34,0.47237
0.16,0.35,0.47473
0.16,0.36,0.47711
0.16,0.37,0.47951
0.16,0.38,0.48191
0.16,0.39,0.48432
0.16,0.4,0.48675
0.16,0.41,0.48919
0.16,0.42,0.49164
0.16,0.43,0.49411
0.16,0.44,0.49659
0.16,0.45,0.49907
0.16,0.46,0.50158
0.16,0.47,0.50409
0.16,0.48,0.50662
0.16,0.49,0.50916
0.16,0.5,0.51171
0.16,0.51,0.51427
0.16,0.52,0.51685
0.16,0.53,0.51944
0.16,0.54,0.52205
0.16,0.55,0.52466
0.16,0.56,0.52729
0.16,0.57,0.52994
0.16,0.58,0.53259
0.16,0.59,0.53526
0.16,0.6,0.53794
0.16,0.61,0.54064
0.16,0.62,0.54335
0.16,0.63,0.54607
0.16,0.64,0.54881
0.16,0.65,0.55156
0.16,0.66,0.55433
0.16,0.67,0.55711
0.16,0.68,0.5599
0.16,0.69,0.5627
0.16,0.7,0.56553
0.16,0.71,0.56836
0.16,0.72,0.57121
0.16,0.73,0.57407
0.16,0.74,0.57695
0.16,0.75,0.57984
0.16,0.76,0.58275
0.16,0.77,0.58567
0.16,0.78,0.5886
0.16,0.79,0.59156
0.16,0.8,0.59452
0.16,0.81,0.5975
0.16,0.82,0.6005
0.16,0.83,0.60351
0.16,0.84,0.60653
0.16,0.85,0.60957
0.16,0.86,0.61263
0.16,0.87,0.6157
0.16,0.88,0.61878