  Title="2D heat conduction problem"
  Variables="x","y","T"
  ZONE I= 51       J= 51      F=POINT
        0.00000            0.00000              0.90484
        0.01020            0.00000              0.90947
        0.03061            0.00000              0.91879
        0.05102            0.00000              0.92822
        0.07143            0.00000              0.93774
        0.09184            0.00000              0.94735
        0.11224            0.00000              0.95707
        0.13265            0.00000              0.96689
        0.15306            0.00000              0.97680
        0.17347            0.00000              0.98682
        0.19388            0.00000              0.99694
        0.21429            0.00000              1.00717
        0.23469            0.00000              1.01750
        0.25510            0.00000              1.02793
        0.27551            0.00000              1.03848
        0.29592            0.00000              1.04913
        0.31633            0.00000              1.05989
        0.33673            0.00000              1.07076
        0.35714            0.00000              1.08174
        0.37755            0.00000              1.09284
        0.39796            0.00000              1.10404
        0.41837            0.00000              1.11537
        0.43878            0.00000              1.12681
        0.45918            0.00000              1.13836
        0.47959            0.00000              1.15004
        0.50000            0.00000              1.16183
        0.52041            0.00000              1.17375
        0.54082            0.00000              1.18579
        0.56122            0.00000              1.19795
        0.58163            0.00000              1.21024
        0.60204            0.00000              1.22265
        0.62245            0.00000              1.23519
        0.64286            0.00000              1.24786
        0.66327            0.00000              1.26066
        0.68367            0.00000              1.27359
        0.70408            0.00000              1.28665
        0.72449            0.00000              1.29984
        0.74490            0.00000              1.31318
        0.76531            0.00000              1.32664
        0.78571            0.00000              1.34025
        0.80612            0.00000              1.35400
        0.82653            0.00000              1.36788
        0.84694            0.00000              1.38191
        0.86735            0.00000              1.39609
        0.88775            0.00000              1.41041
        0.90816            0.00000              1.42487
        0.92857            0.00000              1.43949
        0.94898            0.00000              1.45425
        0.96939            0.00000              1.46916
        0.98980            0.00000              1.48423
        1.00000            0.00000              1.49182
        0.00000            0.01020              0.90947
        0.01020            0.01020              0.91411
        0.03061            0.01020              0.92350
        0.05102            0.01020              0.93298
        0.07143            0.01020              0.94256
        0.09184            0.01020              0.95224
        0.11224            0.01020              0.96201
        0.13265            0.01020              0.97189
        0.15306            0.01020              0.98186
        0.17347            0.01020              0.99194
        0.19388            0.01020              1.00212
        0.21429            0.01020              1.01240
        0.23469            0.01020              1.02279
        0.25510            0.01020              1.03328
        0.27551            0.01020              1.04388
        0.29592            0.01020              1.05459
        0.31633            0.01020              1.06541
        0.33673            0.01020              1.07634
        0.35714            0.01020              1.08738
        0.37755            0.01020              1.09853
        0.39796            0.01020              1.10980
        0.41837            0.01020              1.12118
        0.43878            0.01020              1.13268
        0.45918            0.01020              1.14430
        0.47959            0.01020              1.15604
        0.50000            0.01020              1.16789
        0.52041            0.01020              1.17987
        0.54082            0.01020              1.19197
        0.56122            0.01020              1.20420
        0.58163            0.01020              1.21655
        0.60204            0.01020              1.22902
        0.62245            0.01020              1.24162
        0.64286            0.01020              1.25436
        0.66327            0.01020              1.26722
        0.68367            0.01020              1.28021
        0.70408            0.01020              1.29334
        0.72449            0.01020              1.30660
        0.74490            0.01020              1.31999
        0.76531            0.01020              1.33353
        0.78571            0.01020              1.34720
        0.80612            0.01020              1.36101
        0.82653            0.01020              1.37496
        0.84694            0.01020              1.38905
        0.86735            0.01020              1.40329
        0.88775            0.01020              1.41767
        0.90816            0.01020              1.43220
        0.92857            0.01020              1.44688
        0.94898            0.01020              1.46170
        0.96939            0.01020              1.47668
        0.98980            0.01020              1.49181
        1.00000            0.01020              1.49946
        0.00000            0.03061              0.91879
        0.01020            0.03061              0.92350
        0.03061            0.03061              0.93301
        0.05102            0.03061              0.94261
        0.07143            0.03061              0.95230
        0.09184            0.03061              0.96210
        0.11224            0.03061              0.97199
        0.13265            0.03061              0.98198
        0.15306            0.03061              0.99207
        0.17347            0.03061              1.00226
        0.19388            0.03061              1.01256
        0.21429            0.03061              1.02296
        0.23469            0.03061              1.03346
        0.25510            0.03061              1.04407
        0.27551            0.03061              1.05479
        0.29592            0.03061              1.06562
        0.31633            0.03061              1.07656
        0.33673            0.03061              1.08761
        0.35714            0.03061              1.09877
        0.37755            0.03061              1.11004
        0.39796            0.03061              1.12143
        0.41837            0.03061              1.13293
        0.43878            0.03061              1.14455
        0.45918            0.03061              1.15629
        0.47959            0.03061              1.16815
        0.50000            0.03061              1.18013
        0.52041            0.03061              1.19223
        0.54082            0.03061              1.20446
        0.56122            0.03061              1.21681
        0.58163            0.03061              1.22928
        0.60204            0.03061              1.24189
        0.62245            0.03061              1.25462
        0.64286            0.03061              1.26748
        0.66327            0.03061              1.28047
        0.68367            0.03061              1.29359
        0.70408            0.03061              1.30684
        0.72449            0.03061              1.32023
        0.74490            0.03061              1.33376
        0.76531            0.03061              1.34742
        0.78571            0.03061              1.36122
        0.80612            0.03061              1.37516
        0.82653            0.03061              1.38925
        0.84694            0.03061              1.40347
        0.86735            0.03061              1.41783
        0.88775            0.03061              1.43234
        0.90816            0.03061              1.44700
        0.92857            0.03061              1.46180
        0.94898            0.03061              1.47676
        0.96939            0.03061              1.49186
        0.98980            0.03061              1.50713
        1.00000            0.03061              1.51483
        0.00000            0.05102              0.92822
        0.01020            0.05102              0.93298
        0.03061            0.05102              0.94261
        0.05102            0.05102              0.95233
        0.07143            0.05102              0.96214
        0.09184            0.05102              0.97205
        0.11224            0.05102              0.98206
        0.13265            0.05102              0.99217
        0.15306            0.05102              1.00238
        0.17347            0.05102              1.01269
        0.19388            0.05102              1.02310
        0.21429            0.05102              1.03362
        0.23469            0.05102              1.04424
        0.25510            0.05102              1.05497
        0.27551            0.05102              1.06581
        0.29592            0.05102              1.07675
        0.31633            0.05102              1.08781
        0.33673            0.05102              1.09898
        0.35714            0.05102              1.11026
        0.37755            0.05102              1.12165
        0.39796            0.05102              1.13316
        0.41837            0.05102              1.14479
        0.43878            0.05102              1.15653
        0.45918            0.05102              1.16840
        0.47959            0.05102              1.18038
        0.50000            0.05102              1.19248
        0.52041            0.05102              1.20471
        0.54082            0.05102              1.21706
        0.56122            0.05102              1.22954
        0.58163            0.05102              1.24214
        0.60204            0.05102              1.25487
        0.62245            0.05102              1.26773
        0.64286            0.05102              1.28072
        0.66327            0.05102              1.29384
        0.68367            0.05102              1.30709
        0.70408            0.05102              1.32048
        0.72449            0.05102              1.33400
        0.74490            0.05102              1.34766
        0.76531            0.05102              1.36145
        0.78571            0.05102              1.37538
        0.80612            0.05102              1.38946
        0.82653            0.05102              1.40367
        0.84694            0.05102              1.41802
        0.86735            0.05102              1.43252
        0.88775            0.05102              1.44716
        0.90816            0.05102              1.46195
        0.92857            0.05102              1.47688
        0.94898            0.05102              1.49196
        0.96939            0.05102              1.50720
        0.98980            0.05102              1.52260
        1.00000            0.05102              1.53037
        0.00000            0.07143              0.93774
        0.01020            0.07143              0.94256
        0.03061            0.07143              0.95230
        0.05102            0.07143              0.96214
        0.07143            0.07143              0.97208
        0.09184            0.07143              0.98211
        0.11224            0.07143              0.99223
        0.13265            0.07143              1.00246
        0.15306            0.07143              1.01279
        0.17347            0.07143              1.02321
        0.19388            0.07143              1.03375
        0.21429            0.07143              1.04438
        0.23469            0.07143              1.05512
        0.25510            0.07143              1.06597
        0.27551            0.07143              1.07692
        0.29592            0.07143              1.08799
        0.31633            0.07143              1.09917
        0.33673            0.07143              1.11045
        0.35714            0.07143              1.12186
        0.37755            0.07143              1.13337
        0.39796            0.07143              1.14501
        0.41837            0.07143              1.15676
        0.43878            0.07143              1.16862
        0.45918            0.07143              1.18061
        0.47959            0.07143              1.19272
        0.50000            0.07143              1.20495
        0.52041            0.07143              1.21730
        0.54082            0.07143              1.22978
        0.56122            0.07143              1.24239
        0.58163            0.07143              1.25512
        0.60204            0.07143              1.26798
        0.62245            0.07143              1.28097
        0.64286            0.07143              1.29408
        0.66327            0.07143              1.30734
        0.68367            0.07143              1.32072
        0.70408            0.07143              1.33424
        0.72449            0.07143              1.34789
        0.74490            0.07143              1.36168
        0.76531            0.07143              1.37561
        0.78571            0.07143              1.38968
        0.80612            0.07143              1.40388
        0.82653            0.07143              1.41823
        0.84694            0.07143              1.43272
        0.86735            0.07143              1.44735
        0.88775            0.07143              1.46212
        0.90816            0.07143              1.47704
        0.92857            0.07143              1.49210
        0.94898            0.07143              1.50732
        0.96939            0.07143              1.52269
        0.98980            0.07143              1.53822
        1.00000            0.07143              1.54607
        0.00000            0.09184              0.94735
        0.01020            0.09184              0.95224
        0.03061            0.09184              0.96210
        0.05102            0.09184              0.97205
        0.07143            0.09184              0.98211
        0.09184            0.09184              0.99226
        0.11224            0.09184              1.00250
        0.13265            0.09184              1.01285
        0.15306            0.09184              1.02329
        0.17347            0.09184              1.03384
        0.19388            0.09184              1.04449
        0.21429            0.09184              1.05524
        0.23469            0.09184              1.06610
        0.25510            0.09184              1.07707
        0.27551            0.09184              1.08814
        0.29592            0.09184              1.09933
        0.31633            0.09184              1.11063
        0.33673            0.09184              1.12204
        0.35714            0.09184              1.13356
        0.37755            0.09184              1.14520
        0.39796            0.09184              1.15696
        0.41837            0.09184              1.16883
        0.43878            0.09184              1.18082
        0.45918            0.09184              1.19294
        0.47959            0.09184              1.20517
        0.50000            0.09184              1.21753
        0.52041            0.09184              1.23001
        0.54082            0.09184              1.24262
        0.56122            0.09184              1.25535
        0.58163            0.09184              1.26821
        0.60204            0.09184              1.28120
        0.62245            0.09184              1.29432
        0.64286            0.09184              1.30757
        0.66327            0.09184              1.32096
        0.68367            0.09184              1.33447
        0.70408            0.09184              1.34813
        0.72449            0.09184              1.36191
        0.74490            0.09184              1.37584
        0.76531            0.09184              1.38990
        0.78571            0.09184              1.40410
        0.80612            0.09184              1.41844
        0.82653            0.09184              1.43292
        0.84694            0.09184              1.44755
        0.86735            0.09184              1.46231
        0.88775            0.09184              1.47722
        0.90816            0.09184              1.49228
        0.92857            0.09184              1.50748
        0.94898            0.09184              1.52283
        0.96939            0.09184              1.53834
        0.98980            0.09184              1.55401
        1.00000            0.09184              1.56192
        0.00000            0.11224              0.95707
        0.01020            0.11224              0.96201
        0.03061            0.11224              0.97199
        0.05102            0.11224              0.98206
        0.07143            0.11224              0.99223
        0.09184            0.11224              1.00250
        0.11224            0.11224              1.01286
        0.13265            0.11224              1.02333
        0.15306            0.11224              1.03389
        0.17347            0.11224              1.04456
        0.19388            0.11224              1.05533
        0.21429            0.11224              1.06620
        0.23469            0.11224              1.07718
        0.25510            0.11224              1.08827
        0.27551            0.11224              1.09946
        0.29592            0.11224              1.11077
        0.31633            0.11224              1.12219
        0.33673            0.11224              1.13372
        0.35714            0.11224              1.14537
        0.37755            0.11224              1.15714
        0.39796            0.11224              1.16902
        0.41837            0.11224              1.18102
        0.43878            0.11224              1.19313
        0.45918            0.11224              1.20537
        0.47959            0.11224              1.21774
        0.50000            0.11224              1.23022
        0.52041            0.11224              1.24283
        0.54082            0.11224              1.25557
        0.56122            0.11224              1.26843
        0.58163            0.11224              1.28143
        0.60204            0.11224              1.29455
        0.62245            0.11224              1.30780
        0.64286            0.11224              1.32118
        0.66327            0.11224              1.33470
        0.68367            0.11224              1.34835
        0.70408            0.11224              1.36214
        0.72449            0.11224              1.37606
        0.74490            0.11224              1.39012
        0.76531            0.11224              1.40432
        0.78571            0.11224              1.41866
        0.80612            0.11224              1.43314
        0.82653            0.11224              1.44776
        0.84694            0.11224              1.46252
        0.86735            0.11224              1.47742
        0.88775            0.11224              1.49247
        0.90816            0.11224              1.50766
        0.92857            0.11224              1.52300
        0.94898            0.11224              1.53850
        0.96939            0.11224              1.55415
        0.98980            0.11224              1.56996
        1.00000            0.11224              1.57794
        0.00000            0.13265              0.96689
        0.01020            0.13265              0.97189
        0.03061            0.13265              0.98198
        0.05102            0.13265              0.99217
        0.07143            0.13265              1.00246
        0.09184            0.13265              1.01284
        0.11224            0.13265              1.02333
        0.13265            0.13265              1.03391
        0.15306            0.13265              1.04459
        0.17347            0.13265              1.05538
        0.19388            0.13265              1.06627
        0.21429            0.13265              1.07726
        0.23469            0.13265              1.08836
        0.25510            0.13265              1.09957
        0.27551            0.13265              1.11089
        0.29592            0.13265              1.12232
        0.31633            0.13265              1.13386
        0.33673            0.13265              1.14552
        0.35714            0.13265              1.15729
        0.37755            0.13265              1.16918
        0.39796            0.13265              1.18119
        0.41837            0.13265              1.19331
        0.43878            0.13265              1.20556
        0.45918            0.13265              1.21793
        0.47959            0.13265              1.23042
        0.50000            0.13265              1.24303
        0.52041            0.13265              1.25577
        0.54082            0.13265              1.26864
        0.56122            0.13265              1.28163
        0.58163            0.13265              1.29476
        0.60204            0.13265              1.30801
        0.62245            0.13265              1.32140
        0.64286            0.13265              1.33492
        0.66327            0.13265              1.34857
        0.68367            0.13265              1.36236
        0.70408            0.13265              1.37628
        0.72449            0.13265              1.39035
        0.74490            0.13265              1.40454
        0.76531            0.13265              1.41888
        0.78571            0.13265              1.43336
        0.80612            0.13265              1.44798
        0.82653            0.13265              1.46273
        0.84694            0.13265              1.47763
        0.86735            0.13265              1.49268
        0.88775            0.13265              1.50787
        0.90816            0.13265              1.52320
        0.92857            0.13265              1.53868
        0.94898            0.13265              1.55432
        0.96939            0.13265              1.57011
        0.98980            0.13265              1.58607
        1.00000            0.13265              1.59413
        0.00000            0.15306              0.97680
        0.01020            0.15306              0.98186
        0.03061            0.15306              0.99207
        0.05102            0.15306              1.00238
        0.07143            0.15306              1.01279
        0.09184            0.15306              1.02329
        0.11224            0.15306              1.03389
        0.13265            0.15306              1.04459
        0.15306            0.15306              1.05539
        0.17347            0.15306              1.06630
        0.19388            0.15306              1.07731
        0.21429            0.15306              1.08842
        0.23469            0.15306              1.09965
        0.25510            0.15306              1.11098
        0.27551            0.15306              1.12242
        0.29592            0.15306              1.13397
        0.31633            0.15306              1.14564
        0.33673            0.15306              1.15742
        0.35714            0.15306              1.16932
        0.37755            0.15306              1.18133
        0.39796            0.15306              1.19347
        0.41837            0.15306              1.20572
        0.43878            0.15306              1.21809
        0.45918            0.15306              1.23059
        0.47959            0.15306              1.24321
        0.50000            0.15306              1.25596
        0.52041            0.15306              1.26883
        0.54082            0.15306              1.28183
        0.56122            0.15306              1.29496
        0.58163            0.15306              1.30822
        0.60204            0.15306              1.32160
        0.62245            0.15306              1.33513
        0.64286            0.15306              1.34878
        0.66327            0.15306              1.36257
        0.68367            0.15306              1.37650
        0.70408            0.15306              1.39056
        0.72449            0.15306              1.40476
        0.74490            0.15306              1.41910
        0.76531            0.15306              1.43357
        0.78571            0.15306              1.44819
        0.80612            0.15306              1.46295
        0.82653            0.15306              1.47785
        0.84694            0.15306              1.49289
        0.86735            0.15306              1.50808
        0.88775            0.15306              1.52341
        0.90816            0.15306              1.53889
        0.92857            0.15306              1.55452
        0.94898            0.15306              1.57030
        0.96939            0.15306              1.58624
        0.98980            0.15306              1.60234
        1.00000            0.15306              1.61048
        0.00000            0.17347              0.98682
        0.01020            0.17347              0.99194
        0.03061            0.17347              1.00226
        0.05102            0.17347              1.01269
        0.07143            0.17347              1.02321
        0.09184            0.17347              1.03384
        0.11224            0.17347              1.04456
        0.13265            0.17347              1.05538
        0.15306            0.17347              1.06630
        0.17347            0.17347              1.07733
        0.19388            0.17347              1.08846
        0.21429            0.17347              1.09969
        0.23469            0.17347              1.11104
        0.25510            0.17347              1.12249
        0.27551            0.17347              1.13406
        0.29592            0.17347              1.14574
        0.31633            0.17347              1.15753
        0.33673            0.17347              1.16943
        0.35714            0.17347              1.18146
        0.37755            0.17347              1.19360
        0.39796            0.17347              1.20586
        0.41837            0.17347              1.21824
        0.43878            0.17347              1.23074
        0.45918            0.17347              1.24337
        0.47959            0.17347              1.25612
        0.50000            0.17347              1.26900
        0.52041            0.17347              1.28200
        0.54082            0.17347              1.29514
        0.56122            0.17347              1.30840
        0.58163            0.17347              1.32179
        0.60204            0.17347              1.33532
        0.62245            0.17347              1.34898
        0.64286            0.17347              1.36277
        0.66327            0.17347              1.37670
        0.68367            0.17347              1.39076
        0.70408            0.17347              1.40497
        0.72449            0.17347              1.41931
        0.74490            0.17347              1.43379
        0.76531            0.17347              1.44841
        0.78571            0.17347              1.46317
        0.80612            0.17347              1.47807
        0.82653            0.17347              1.49311
        0.84694            0.17347              1.50830
        0.86735            0.17347              1.52363
        0.88775            0.17347              1.53911
        0.90816            0.17347              1.55473
        0.92857            0.17347              1.57051
        0.94898            0.17347              1.58644
        0.96939            0.17347              1.60253
        0.98980            0.17347              1.61878
        1.00000            0.17347              1.62699
        0.00000            0.19388              0.99694
        0.01020            0.19388              1.00212
        0.03061            0.19388              1.01256
        0.05102            0.19388              1.02310
        0.07143            0.19388              1.03374
        0.09184            0.19388              1.04448
        0.11224            0.19388              1.05532
        0.13265            0.19388              1.06627
        0.15306            0.19388              1.07731
        0.17347            0.19388              1.08846
        0.19388            0.19388              1.09971
        0.21429            0.19388              1.11107
        0.23469            0.19388              1.12254
        0.25510            0.19388              1.13411
        0.27551            0.19388              1.14580
        0.29592            0.19388              1.15761
        0.31633            0.19388              1.16952
        0.33673            0.19388              1.18156
        0.35714            0.19388              1.19371
        0.37755            0.19388              1.20598
        0.39796            0.19388              1.21836
        0.41837            0.19388              1.23088
        0.43878            0.19388              1.24351