 title="contour"
 variables="x","y","u","v",
 "p","den","mach","entropy","vmu",
 zone i=          98  j=          49  f=point
  3.8461499E-02  -1.500000       1.288230      1.5727914E-04   49.95293    
   5.632481      0.3853697       565821.3      0.0000000E+00
  0.1153845      -1.500000       1.393358      5.1497854E-04   48.03745    
   5.459237      0.4184595       565970.3      0.0000000E+00
  0.1923075      -1.500000       1.411808      1.0409672E-03   47.70182    
   5.428919      0.4243065       565973.4      0.0000000E+00
  0.2692305      -1.500000       1.411611      1.6704843E-03   47.61246    
   5.420839      0.4243294       565974.5      0.0000000E+00
  0.3461535      -1.500000       1.406760      2.4066356E-03   47.64843    
   5.424082      0.4228382       565975.3      0.0000000E+00
  0.4230765      -1.500000       1.395742      3.3166707E-03   47.75703    
   5.433886      0.4194283       565976.0      0.0000000E+00
  0.5000000      -1.500000       1.382108      4.4771414E-03   47.87381    
   5.444425      0.4152273       565976.6      0.0000000E+00
  0.5769235      -1.500000       1.365509      6.0033612E-03   47.99636    
   5.455481      0.4101341       565976.8      0.0000000E+00
  0.6538465      -1.500000       1.342983      8.1591932E-03   48.16465    
   5.470671      0.4032267       565975.0      0.0000000E+00
  0.7307695      -1.500000       1.311964      1.1593379E-02   48.39634    
   5.491629      0.3937294       565964.2      0.0000000E+00
  0.8076925      -1.500000       1.267960      1.8302834E-02   48.69286    
   5.517766      0.3802896       566035.2      0.0000000E+00
  0.8846154      -1.500000       1.213017      3.4435984E-02   48.99965    
   5.543048      0.3636087       566330.1      0.0000000E+00
  0.9615384      -1.500000       1.102030      8.4000066E-02   49.01397    
   5.541753      0.3310776       566662.4      0.0000000E+00
   1.034343      -1.500000       1.054965      0.2199631       51.19593    
   5.734214      0.3213015       566967.6      0.0000000E+00
   1.103030      -1.475000       1.167267      0.3297445       49.62258    
   5.593669      0.3627986       566997.8      0.0000000E+00
   1.171718      -1.450000       1.269900      0.3919710       48.50523    
   5.494056      0.3984717       566921.9      0.0000000E+00
   1.240404      -1.425000       1.341934      0.4360393       47.86670    
   5.436739      0.4236369       566900.6      0.0000000E+00
   1.309092      -1.400000       1.402328      0.4686232       47.31449    
   5.387002      0.4444567       566887.2      0.0000000E+00
   1.377779      -1.375000       1.457753      0.4945300       46.80384    
   5.340841      0.4632514       566882.8      0.0000000E+00
   1.446465      -1.350000       1.511072      0.5168250       46.31371    
   5.296425      0.4811268       566880.1      0.0000000E+00
   1.515152      -1.325000       1.563750      0.5373163       45.82702    
   5.252244      0.4986863       566874.6      0.0000000E+00
   1.583838      -1.300000       1.617005      0.5570605       45.32812    
   5.206885      0.5163978       566864.7      0.0000000E+00
   1.652526      -1.275000       1.671834      0.5767263       44.80508    
   5.159238      0.5346290       566851.6      0.0000000E+00
   1.721213      -1.250000       1.729222      0.5968188       44.24589    
   5.108173      0.5537326       566837.0      0.0000000E+00
   1.789900      -1.225000       1.790228      0.6178032       43.63692    
   5.052393      0.5740868       566823.2      0.0000000E+00
   1.858587      -1.200000       1.856174      0.6401637       42.96053    
   4.990212      0.5961594       566812.8      0.0000000E+00
   1.927274      -1.175000       1.929074      0.6643922       42.19084    
   4.919160      0.6206416       566807.4      0.0000000E+00
   1.995960      -1.150000       2.012567      0.6910561       41.28883    
   4.835485      0.6487404       566810.7      0.0000000E+00
   2.064647      -1.125000       2.112993      0.7210968       40.19202    
   4.733130      0.6825579       566829.9      0.0000000E+00
   2.133335      -1.100000       2.241273      0.7563046       38.79512    
   4.601686      0.7257656       566893.8      0.0000000E+00
   2.202022      -1.075000       2.421978      0.8025395       36.90647    
   4.421095      0.7867205       567198.2      0.0000000E+00
   2.270709      -1.050000       2.711004      0.8485189       34.19366    
   4.153109      0.8819674       568584.8      0.0000000E+00
   2.339396      -1.025000       3.364056      0.8461462       29.11480    
   3.624493       1.090349       574727.8      0.0000000E+00
   2.423248      -1.000000       4.147780      0.5463555       14.85946    
   2.071910       1.391713       593438.6      0.0000000E+00
   2.522267      -1.026647       4.154294     -9.9115141E-02   10.43054    
   1.513914       1.410369       618556.2      0.0000000E+00
   2.621286      -1.053294       4.060388     -0.7734836       10.65596    
   1.533392       1.396860       621826.6      0.0000000E+00
   2.720305      -1.079941       3.910448      -1.057284       11.57951    
   1.633447       1.355406       623990.1      0.0000000E+00
   2.819323      -1.106588       3.850849      -1.079264       12.64917    
   1.760668       1.329226       620166.6      0.0000000E+00
   2.918342      -1.133235       3.824579      -1.066785       13.30039    
   1.842342       1.316499       615882.6      0.0000000E+00
   3.017361      -1.159882       3.820917      -1.053006       13.78673    
   1.896427       1.309531       615547.8      0.0000000E+00
   3.116380      -1.186529       3.828308      -1.043791       14.05697    
   1.932332       1.310651       612955.1      0.0000000E+00
   3.215399      -1.213175       3.846297      -1.042283       14.15953    
   1.953061       1.318494       609181.9      0.0000000E+00
   3.314418      -1.239822       3.869000      -1.043687       14.15817    
   1.957828       1.327548       607255.2      0.0000000E+00
   3.413436      -1.266469       3.896504      -1.046790       14.10836    
   1.954168       1.337719       606546.9      0.0000000E+00
   3.512455      -1.293116       3.929771      -1.051229       13.99259    
   1.943373       1.350576       605783.4      0.0000000E+00
   3.611474      -1.319763       3.969311      -1.055013       13.80181    
   1.923655       1.365992       605251.4      0.0000000E+00
   3.710493      -1.346410       4.014694      -1.058770       13.53627    
   1.894654       1.383832       605077.7      0.0000000E+00
   3.809512      -1.373057       4.064375      -1.063611       13.21014    
   1.857965       1.403645       605229.4      0.0000000E+00
   3.908530      -1.399704       4.117122      -1.070193       12.84348    
   1.816243       1.425121       605513.0      0.0000000E+00
   4.007550      -1.426351       4.172157      -1.078235       12.45068    
   1.771475       1.448057       605746.2      0.0000000E+00
   4.106568      -1.452998       4.227796      -1.087205       12.04487    
   1.725100       1.471770       605920.9      0.0000000E+00
   4.205586      -1.479645       4.282709      -1.097310       11.64216    
   1.678720       1.495590       606123.1      0.0000000E+00
   4.304605      -1.506292       4.337065      -1.107885       11.24504    
   1.632556       1.519464       606383.0      0.0000000E+00
   4.403625      -1.532939       4.391124      -1.118336       10.85218    
   1.586491       1.543468       606688.1      0.0000000E+00
   4.502644      -1.559586       4.444580      -1.128725       10.46611    
   1.540852       1.567490       607025.0      0.0000000E+00
   4.601662      -1.586233       4.496980      -1.139242       10.09080    
   1.496126       1.591344       607387.4      0.0000000E+00
   4.700681      -1.612880       4.548140      -1.149855       9.728489    
   1.452603       1.614928       607771.6      0.0000000E+00
   4.799700      -1.639526       4.598057      -1.160446       9.379379    
   1.410333       1.638216       608175.2      0.0000000E+00
   4.898719      -1.666173       4.646749      -1.170919       9.043533    
   1.369353       1.661196       608595.6      0.0000000E+00
   4.997737      -1.692820       4.694234      -1.181321       8.720863    
   1.329683       1.683867       609027.2      0.0000000E+00
   5.096756      -1.719467       4.740486      -1.191630       8.411530    
   1.291371       1.706203       609467.9      0.0000000E+00
   5.195776      -1.746114       4.785481      -1.201830       8.115518    
   1.254439       1.728177       609915.7      0.0000000E+00
   5.294794      -1.772761       4.829218      -1.211895       7.832619    
   1.218887       1.749772       610369.8      0.0000000E+00
   5.393813      -1.799408       4.871713      -1.221800       7.562462    
   1.184693       1.770980       610829.1      0.0000000E+00
   5.492832      -1.826055       4.912998      -1.231523       7.304624    
   1.151829       1.791798       611292.2      0.0000000E+00
   5.591850      -1.852702       4.953094      -1.241060       7.058568    
   1.120251       1.812227       611757.6      0.0000000E+00
   5.690869      -1.879349       4.992035      -1.250402       6.823857    
   1.089924       1.832268       612224.3      0.0000000E+00
   5.789888      -1.905996       5.029867      -1.259545       6.599895    
   1.060794       1.851932       612691.6      0.0000000E+00
   5.888907      -1.932643       5.066634      -1.268485       6.386143    
   1.032811       1.871228       613158.1      0.0000000E+00
   5.987926      -1.959290       5.102377      -1.277223       6.182062    
   1.005923       1.890167       613623.0      0.0000000E+00
   6.086945      -1.985937       5.137128      -1.285760       5.987145    
  0.9800826       1.908756       614085.4      0.0000000E+00
   6.185964      -2.012584       5.170947      -1.294082       5.800934    
  0.9552458       1.927012       614543.8      0.0000000E+00
   6.284983      -2.039230       5.203884      -1.302207       5.622779    
  0.9313405       1.944956       614998.8      0.0000000E+00
   6.384001      -2.065877       5.235954      -1.310149       5.452373    
  0.9083402       1.962588       615449.4      0.0000000E+00
   6.483020      -2.092524       5.267193      -1.317916       5.289338    
  0.8862076       1.979918       615894.9      0.0000000E+00
   6.582039      -2.119171       5.297627      -1.325514       5.133277    
  0.8649008       1.996953       616335.4      0.0000000E+00
   6.681058      -2.145818       5.327270      -1.332962       4.983879    
  0.8443896       2.013694       616770.3      0.0000000E+00
   6.780077      -2.172465       5.356133      -1.340264       4.840916    
  0.8246529       2.030139       617199.9      0.0000000E+00
   6.879096      -2.199112       5.384238      -1.347428       4.704057    
  0.8056558       2.046293       617624.0      0.0000000E+00
   6.978114      -2.225759       5.411587      -1.354472       4.573083    
  0.7873775       2.062151       618042.8      0.0000000E+00
   7.077132      -2.252406       5.438176      -1.361409       4.447806    
  0.7698022       2.077707       618455.1      0.0000000E+00
   7.176151      -2.279053       5.464003      -1.368251       4.328040    
  0.7529123       2.092950       618861.3      0.0000000E+00
   7.275170      -2.305700       5.489080      -1.374997       4.213592    
  0.7366896       2.107879       619261.2      0.0000000E+00
   7.374189      -2.332347       5.513408      -1.381653       4.104222    
  0.7211087       2.122489       619654.9      0.0000000E+00
   7.473207      -2.358994       5.536989      -1.388224       3.999780    
  0.7061566       2.136775       620041.6      0.0000000E+00
   7.572227      -2.385641       5.559848      -1.394698       3.900055    
  0.6918117       2.150740       620420.1      0.0000000E+00
   7.671246      -2.412288       5.581997      -1.401070       3.804780    
  0.6780435       2.164387       620790.4      0.0000000E+00
   7.770265      -2.438935       5.603473      -1.407318       3.713780    
  0.6648340       2.177725       621151.3      0.0000000E+00
   7.869284      -2.465581       5.624315      -1.413443       3.626723    
  0.6521420       2.190770       621502.9      0.0000000E+00
   7.968302      -2.492228       5.644524      -1.419451       3.543481    
  0.6399547       2.203521       621844.9      0.0000000E+00
   8.067322      -2.518875       5.664136      -1.425337       3.463844    
  0.6282476       2.215988       622176.2      0.0000000E+00
   8.166340      -2.545522       5.683202      -1.431094       3.387516    
  0.6169831       2.228199       622496.8      0.0000000E+00
   8.265359      -2.572169       5.701854      -1.436688       3.314347    
  0.6061429       2.240194       622806.9      0.0000000E+00
   8.364378      -2.598816       5.719659      -1.442302       3.244409    
  0.5957426       2.251817       623105.6      0.0000000E+00
   8.463396      -2.625463       5.736465      -1.448259       3.179350    
  0.5860281       2.262907       623391.8      0.0000000E+00
   8.562415      -2.652110       5.752138      -1.454899       3.117112    
  0.5767114       2.273593       623655.4      0.0000000E+00
   8.661434      -2.678757       5.770900      -1.457930       3.055541    
  0.5674666       2.285174       623911.9      0.0000000E+00
   8.760453      -2.705404       5.792762      -1.466338       2.968636    
  0.5543458       2.300375       624299.6      0.0000000E+00
  3.8461499E-02  -1.438776       1.288476      6.3054863E-04   49.94798    
   5.632029      0.3854470       565822.5      0.0000000E+00
  0.1153845      -1.438776       1.393647      1.9307751E-03   48.02894    
   5.458463      0.4185542       565971.1      0.0000000E+00
  0.1923075      -1.438776       1.412088      3.6530765E-03   47.69194    
   5.428022      0.4244007       565974.0      0.0000000E+00
  0.2692305      -1.438776       1.411895      5.5964254E-03   47.60205    
   5.419891      0.4244271       565975.2      0.0000000E+00
  0.3461535      -1.438776       1.407138      7.8778556E-03   47.63639    
   5.422989      0.4229685       565976.1      0.0000000E+00
  0.4230765      -1.438776       1.396305      1.0765106E-02   47.74155    
   5.432483      0.4196226       565976.7      0.0000000E+00
  0.5000000      -1.438776       1.382901      1.4468832E-02   47.85396    
   5.442629      0.4155039       565977.1      0.0000000E+00
  0.5769235      -1.438776       1.366622      1.9321937E-02   47.97083    
   5.453174      0.4105278       565977.4      0.0000000E+00
  0.6538465      -1.438776       1.344627      2.6120389E-02   48.13038    
   5.467581      0.4038187       565975.1      0.0000000E+00
  0.7307695      -1.438776       1.314601      3.6528967E-02   48.34883    
   5.487300      0.3946958       565970.8      0.0000000E+00
  0.8076925      -1.438776       1.272759      5.4552119E-02   48.62011    
   5.511068      0.3820933       566055.2      0.0000000E+00
  0.8846154      -1.438776       1.224742      8.5771099E-02   48.91684    
   5.535991      0.3679511       566281.4      0.0000000E+00
  0.9615384      -1.438776       1.152303      0.1424009       48.83578    
   5.527091      0.3479780       566490.2      0.0000000E+00
   1.034343      -1.438776       1.136871      0.2577533       49.46311    
   5.582171      0.3488762       566642.8      0.0000000E+00
   1.103030      -1.414796       1.205809      0.3364289       48.55686    
   5.500262      0.3753510       566718.7      0.0000000E+00
   1.171718      -1.390816       1.280151      0.3829833       47.76667    
   5.429119      0.4013214       566716.6      0.0000000E+00
   1.240404      -1.366837       1.343233      0.4208831       47.30896    
   5.387630      0.4231848       566737.8      0.0000000E+00
   1.309092      -1.342857       1.401571      0.4514566       46.87641    
   5.348441      0.4431006       566745.4      0.0000000E+00
   1.377779      -1.318878       1.457171      0.4771031       46.43964    
   5.308840      0.4618428       566747.0      0.0000000E+00
   1.446465      -1.294898       1.511168      0.4998723       45.98967    
   5.267982      0.4799184       566746.0      0.0000000E+00
   1.515152      -1.270918       1.564654      0.5211285       45.52142    
   5.225387      0.4977689       566743.6      0.0000000E+00
   1.583838      -1.246939       1.618764      0.5416753       45.02799    
   5.180410      0.5158056       566739.8      0.0000000E+00
   1.652526      -1.222959       1.674568      0.5621219       44.50134    
   5.132298      0.5344075       566735.0      0.0000000E+00
   1.721213      -1.198980       1.733176      0.5829763       43.93114    
   5.080072      0.5539634       566730.2      0.0000000E+00
   1.789900      -1.175000       1.795869      0.6047080       43.30416    
   5.022471      0.5749172       566726.7      0.0000000E+00
   1.858587      -1.151020       1.864361      0.6277767       42.60233    
   4.957767      0.5978519       566725.5      0.0000000E+00
   1.927274      -1.127041       1.941190      0.6525992       41.79937    
   4.883440      0.6236090       566728.4      0.0000000E+00
   1.995960      -1.103061       2.030167      0.6796985       40.85451    
   4.795559      0.6534559       566738.2      0.0000000E+00
   2.064647      -1.079082       2.136836      0.7099099       39.70081    
   4.687601      0.6892807       566762.9      0.0000000E+00
   2.133335      -1.055102       2.270627      0.7436407       38.24553    
   4.550268      0.7341982       566831.6      0.0000000E+00
   2.202022      -1.031122       2.452377      0.7774203       36.34424    
   4.368096      0.7945550       567110.2      0.0000000E+00
   2.270709      -1.007143       2.728284      0.7926401       33.57437    
   4.095809      0.8840284       568145.8      0.0000000E+00
   2.339396     -0.9831630       3.280324      0.7547581       28.38344    
   3.568298       1.063240       571431.3      0.0000000E+00
   2.422819     -0.9591839       3.986261      0.2924781       19.99861    
   2.652983       1.296921       584917.2      0.0000000E+00
   2.520980     -0.9849730       4.111235     -0.4384513       14.53403    
   2.001113       1.366739       606434.2      0.0000000E+00
   2.619142      -1.010762       4.129979     -0.9691727       12.81802    
   1.800428       1.416382       611009.0      0.0000000E+00
   2.717302      -1.036551       4.081288      -1.157412       12.36254    
   1.744133       1.419531       613362.7      0.0000000E+00
   2.815463      -1.062340       4.018609      -1.162050       12.57730    
   1.768579       1.397485       613169.2      0.0000000E+00
   2.913624      -1.088129       3.951354      -1.142188       13.06193    
   1.827793       1.370712       610913.2      0.0000000E+00
   3.011786      -1.113919       3.909727      -1.102904       13.57541    
   1.888748       1.349890       609219.0      0.0000000E+00
   3.109946      -1.139708       3.895923      -1.077717       13.92694    
   1.931562       1.341106       607590.0      0.0000000E+00
   3.208107      -1.165497       3.901487      -1.070629       14.10219    
   1.956715       1.342552       605287.6      0.0000000E+00
   3.306268      -1.191286       3.915004      -1.068349       14.14081    
   1.964464       1.347499       603930.0      0.0000000E+00
   3.404429      -1.217075       3.935484      -1.065904       14.11182    
   1.962445       1.354541       603473.2      0.0000000E+00
   3.502591      -1.242864       3.963841      -1.064164       14.01759    
   1.953720       1.365017       602819.0      0.0000000E+00
   3.600752      -1.268653       4.000216      -1.064568       13.84939    
   1.936827       1.379073       602138.4      0.0000000E+00
   3.698913      -1.294443       4.043483      -1.066631       13.61686    
   1.912261       1.396089       601627.2      0.0000000E+00
   3.797074      -1.320232       4.092554      -1.070626       13.32794    
   1.880959       1.415766       601236.2      0.0000000E+00
   3.895235      -1.346021       4.145776      -1.076722       12.99117    
   1.843727       1.437536       600994.6      0.0000000E+00
   3.993396      -1.371810       4.200828      -1.084479       12.62129    
   1.802176       1.460517       600895.7      0.0000000E+00
   4.091557      -1.397599       4.255784      -1.093753       12.23849    
   1.758739       1.483952       600861.3      0.0000000E+00
   4.189717      -1.423388       4.310616      -1.103706       11.85177    
   1.714561       1.507744       600828.3      0.0000000E+00
   4.287879      -1.449177       4.365522      -1.113184       11.46369    
   1.669814       1.531800       600845.1      0.0000000E+00
   4.386040      -1.474967       4.420082      -1.122350       11.07821    
   1.624892       1.555931       600939.2      0.0000000E+00
   4.484201      -1.500756       4.473794      -1.131729       10.69949    
   1.580340       1.579988       601086.9      0.0000000E+00
   4.582362      -1.526545       4.526398      -1.141428       10.33008    
   1.536512       1.603876       601268.4      0.0000000E+00
   4.680523      -1.552334       4.577828      -1.151269       9.971327    
   1.493593       1.627537       601478.6      0.0000000E+00
   4.778684      -1.578123       4.628058      -1.161098       9.623970    
   1.451699       1.650933       601713.4      0.0000000E+00
   4.876845      -1.603912       4.677083      -1.170838       9.288567    
   1.410928       1.674043       601966.9      0.0000000E+00
   4.975006      -1.629702       4.724865      -1.180549       8.965179    
   1.371318       1.696851       602233.4      0.0000000E+00
   5.073167      -1.655491       4.771359      -1.190246       8.654220    
   1.332946       1.719325       602509.9      0.0000000E+00
   5.171329      -1.681280       4.816563      -1.199890       8.355815    
   1.295850       1.741443       602795.1      0.0000000E+00
   5.269489      -1.707069       4.860490      -1.209435       8.069846    
   1.260043       1.763193       603086.8      0.0000000E+00
   5.367651      -1.732858       4.903161      -1.218853       7.796111    
   1.225520       1.784565       603384.5      0.0000000E+00
   5.465811      -1.758647       4.944601      -1.228123       7.534326    
   1.192272       1.805554       603686.2      0.0000000E+00
   5.563972      -1.784436       4.984837      -1.237238       7.284101    
   1.160274       1.826161       603989.8      0.0000000E+00
   5.662133      -1.810226       5.023911      -1.246184       7.045012    
   1.129491       1.846389       604295.4      0.0000000E+00
   5.760295      -1.836015       5.061863      -1.254954       6.816574    
   1.099884       1.866244       604601.4      0.0000000E+00
   5.858455      -1.861804       5.098742      -1.263542       6.598288    
   1.071407       1.885738       604906.8      0.0000000E+00
   5.956616      -1.887593       5.134591      -1.271943       6.389662    
   1.044016       1.904880       605211.2      0.0000000E+00
   6.054778      -1.913382       5.169454      -1.280159       6.190196    
   1.017661       1.923681       605514.4      0.0000000E+00
   6.152938      -1.939171       5.203375      -1.288179       5.999448    
  0.9923018       1.942151       605815.1      0.0000000E+00
   6.251100      -1.964960       5.236385      -1.296022       5.816957    
  0.9678912       1.960298       606114.1      0.0000000E+00
   6.349261      -1.990750       5.268528      -1.303700       5.642292    
  0.9443870       1.978137       606410.2      0.0000000E+00
   6.447422      -2.016539       5.299830      -1.311219       5.475077    
  0.9217507       1.995672       606704.4      0.0000000E+00
   6.545583      -2.042328       5.330320      -1.318591       5.314944    
  0.8999471       2.012912       606995.2      0.0000000E+00
   6.643744      -2.068117       5.360016      -1.325834       5.161571    
  0.8789429       2.029859       607283.4      0.0000000E+00
   6.741905      -2.093906       5.388933      -1.332954       5.014679    
  0.8587106       2.046512       607569.7      0.0000000E+00
   6.840066      -2.119695       5.417084      -1.339971       4.873993    
  0.8392236       2.062874       607853.6      0.0000000E+00
   6.938227      -2.145485       5.444477      -1.346898       4.739283    
  0.8204600       2.078940       608135.4      0.0000000E+00
   7.036388      -2.171274       5.471117      -1.353749       4.610315    
  0.8023975       2.094710       608414.8      0.0000000E+00
   7.134549      -2.197063       5.497013      -1.360536       4.486883    
  0.7850168       2.110178       608691.6      0.0000000E+00
   7.232710      -2.222852       5.522169      -1.367256       4.368783    
  0.7682984       2.125342       608965.5      0.0000000E+00
   7.330871      -2.248641       5.546602      -1.373913       4.255798    
  0.7522209       2.140201       609236.3      0.0000000E+00
   7.429032      -2.274430       5.570323      -1.380504       4.147722    
  0.7367641       2.154757       609502.9      0.0000000E+00
   7.527193      -2.300219       5.593350      -1.387012       4.044343    
  0.7219061       2.169009       609764.6      0.0000000E+00
   7.625354      -2.326009       5.615705      -1.393427       3.945436    
  0.7076225       2.182963       610021.1      0.0000000E+00
   7.723516      -2.351798       5.637411      -1.399732       3.850801    
  0.6938919       2.196622       610271.8      0.0000000E+00
   7.821677      -2.377587       5.658485      -1.405929       3.760233    
  0.6806909       2.209991       610517.1      0.0000000E+00
   7.919837      -2.403376       5.678936      -1.412021       3.673542    
  0.6679991       2.223070       610755.4      0.0000000E+00
   8.017999      -2.429165       5.698791      -1.418012       3.590577    
  0.6557999       2.235866       610987.5      0.0000000E+00
   8.116159      -2.454954       5.718057      -1.423914       3.511076    
  0.6440607       2.248387       611212.8      0.0000000E+00
   8.214320      -2.480743       5.736862      -1.429696       3.434939    
  0.6327717       2.260670       611431.2      0.0000000E+00
   8.312481      -2.506533       5.754901      -1.435482       3.361915    
  0.6219004       2.272619       611643.5      0.0000000E+00
   8.410643      -2.532322       5.772296      -1.441425       3.293391    
  0.6116534       2.284177       611851.9      0.0000000E+00
   8.508803      -2.558111       5.788182      -1.448128       3.227176    
  0.6017174       2.295225       612051.7      0.0000000E+00
   8.606965      -2.583900       5.806742      -1.451829       3.164006    
  0.5921953       2.306897       612253.6      0.0000000E+00
   8.705126      -2.609689       5.828605      -1.461038       3.073725    
  0.5785260       2.322421       612545.1      0.0000000E+00
  3.8461499E-02  -1.377551       1.289039      1.1044327E-03   49.93819    
   5.631129      0.3856223       565825.4      0.0000000E+00
  0.1153845      -1.377551       1.394380      3.2661008E-03   48.01476    
   5.457160      0.4187869       565974.4      0.0000000E+00
  0.1923075      -1.377551       1.412876      6.0477671E-03   47.67682    
   5.426637      0.4246533       565976.6      0.0000000E+00
  0.2692305      -1.377551       1.412734      9.1887088E-03   47.58612    
   5.418437      0.4246988       565977.4      0.0000000E+00
  0.3461535      -1.377551       1.408244      1.2923312E-02   47.61734    
   5.421253      0.4233291       565977.8      0.0000000E+00
  0.4230765      -1.377551       1.397901      1.7671607E-02   47.71643    
   5.430202      0.4201458       565978.4      0.0000000E+00
  0.5000000      -1.377551       1.385141      2.3726529E-02   47.82189    
   5.439723      0.4162434       565978.6      0.0000000E+00
  0.5769235      -1.377551       1.369789      3.1610489E-02   47.92949    
   5.449433      0.4115837       565978.7      0.0000000E+00
  0.6538465      -1.377551       1.349352      4.2589493E-02   48.07314    
   5.462430      0.4054132       565973.7      0.0000000E+00
  0.7307695      -1.377551       1.322402      5.9166573E-02   48.26245    
   5.479500      0.3973546       565973.2      0.0000000E+00
  0.8076925      -1.377551       1.287460      8.6304322E-02   48.46424    
   5.497103      0.3871492       566047.2      0.0000000E+00
  0.8846154      -1.377551       1.253607      0.1273442       48.66593    
   5.514307      0.3778666       566169.5      0.0000000E+00
  0.9615384      -1.377551       1.218686      0.1769801       48.56893    
   5.504990      0.3693493       566246.2      0.0000000E+00
   1.034343      -1.377551       1.216725      0.2535047       48.92504    
   5.536669      0.3724717       566288.8      0.0000000E+00
   1.103030      -1.354592       1.261331      0.3150394       48.41777    
   5.490520      0.3900218       566358.9      0.0000000E+00
   1.171718      -1.331633       1.318467      0.3552736       47.73513    
   5.428321      0.4102214       566447.3      0.0000000E+00
   1.240404      -1.308673       1.368126      0.3900191       47.25550    
   5.384604      0.4278170       566498.2      0.0000000E+00
   1.309092      -1.285714       1.417788      0.4195359       46.81700    
   5.344731      0.4450555       566522.2      0.0000000E+00
   1.377779      -1.262755       1.468747      0.4454037       46.38086    
   5.305124      0.4624279       566529.2      0.0000000E+00
   1.446465      -1.239796       1.520553      0.4689853       45.93549    
   5.264637      0.4799092       566531.6      0.0000000E+00
   1.515152      -1.216837       1.573337      0.4911174       45.47262    
   5.222450      0.4976093       566537.2      0.0000000E+00
   1.583838      -1.193878       1.627593      0.5123616       44.98400    
   5.177793      0.5157295       566546.8      0.0000000E+00