 title="contour"
 variables="x","y","u","v",
 "p","den","mach","entropy","vmu",
 zone i=          54  j=          11  f=point
  1.9999999E-04 -6.8181823E-03  0.0000000E+00  0.0000000E+00   999999.9    
   1.400000      0.0000000E+00   654453.3      0.0000000E+00
  5.9999997E-04 -6.8181823E-03  0.0000000E+00  0.0000000E+00   999999.9    
   1.400000      0.0000000E+00   654453.3      0.0000000E+00
  9.9999993E-04 -6.8181823E-03  0.0000000E+00  0.0000000E+00   999999.9    
   1.400000      0.0000000E+00   654453.3      0.0000000E+00
  1.4000000E-03 -6.8181823E-03  0.0000000E+00  0.0000000E+00   999999.9    
   1.400000      0.0000000E+00   654453.3      0.0000000E+00
  1.8000001E-03 -6.8181823E-03  0.0000000E+00  0.0000000E+00   999999.9    
   1.400000      0.0000000E+00   654453.3      0.0000000E+00
  2.1064074E-03 -6.7370133E-03  0.0000000E+00  0.0000000E+00   999999.9    
   1.400000      0.0000000E+00   654453.3      0.0000000E+00
  2.3192200E-03 -6.5746745E-03  0.0000000E+00  0.0000000E+00   999999.9    
   1.400000      0.0000000E+00   654453.3      0.0000000E+00
  2.5320328E-03 -6.4123357E-03  0.0000000E+00  0.0000000E+00   999999.9    
   1.400000      0.0000000E+00   654453.3      0.0000000E+00
  2.7448474E-03 -6.2499996E-03  0.0000000E+00  0.0000000E+00   999999.9    
   1.400000      0.0000000E+00   654453.3      0.0000000E+00
  2.9576600E-03 -6.0876636E-03  0.0000000E+00  0.0000000E+00   999999.9    
   1.400000      0.0000000E+00   654453.3      0.0000000E+00
  3.1704723E-03 -5.9253252E-03  0.0000000E+00  0.0000000E+00   999999.9    
   1.400000      0.0000000E+00   654453.3      0.0000000E+00
  3.3832851E-03 -5.7629864E-03  0.0000000E+00  0.0000000E+00   999999.9    
   1.400000      0.0000000E+00   654453.3      0.0000000E+00
  3.5960975E-03 -5.6006485E-03  0.0000000E+00  0.0000000E+00   999999.9    
   1.400000      0.0000000E+00   654453.3      0.0000000E+00
  3.8089126E-03 -5.4383110E-03  0.0000000E+00  0.0000000E+00   999999.9    
   1.400000      0.0000000E+00   654453.3      0.0000000E+00
  4.0217252E-03 -5.2759736E-03  0.0000000E+00  0.0000000E+00   999999.9    
   1.400000      0.0000000E+00   654453.3      0.0000000E+00
  4.2345375E-03 -5.1136357E-03  0.0000000E+00  0.0000000E+00   999999.9    
   1.400000      0.0000000E+00   654453.3      0.0000000E+00
  4.4473526E-03 -4.9512987E-03  0.0000000E+00  0.0000000E+00   999999.9    
   1.400000      0.0000000E+00   654453.3      0.0000000E+00
  4.6601649E-03 -4.7889608E-03  0.0000000E+00  0.0000000E+00   999999.9    
   1.400000      0.0000000E+00   654453.3      0.0000000E+00
  4.8729777E-03 -4.6266238E-03  0.0000000E+00  0.0000000E+00   999999.9    
   1.400000      0.0000000E+00   654453.3      0.0000000E+00
  5.2371286E-03 -4.6106284E-03  0.0000000E+00  0.0000000E+00   999999.9    
   1.400000      0.0000000E+00   654453.3      0.0000000E+00
  5.7525476E-03 -4.7409586E-03  0.0000000E+00  0.0000000E+00   999999.9    
   1.400000      0.0000000E+00   654453.3      0.0000000E+00
  6.2678256E-03 -4.8712548E-03  0.0000000E+00  0.0000000E+00   999999.9    
   1.400000      0.0000000E+00   654453.3      0.0000000E+00
  6.7829685E-03 -5.0015198E-03  0.0000000E+00  0.0000000E+00   999999.9    
   1.400000      0.0000000E+00   654453.3      0.0000000E+00
  7.2979820E-03 -5.1317546E-03  0.0000000E+00  0.0000000E+00   999999.9    
   1.400000      0.0000000E+00   654453.3      0.0000000E+00
  7.8128707E-03 -5.2619600E-03  0.0000000E+00  0.0000000E+00   999999.9    
   1.400000      0.0000000E+00   654453.3      0.0000000E+00
  8.3276387E-03 -5.3921351E-03  0.0000000E+00  0.0000000E+00   999999.9    
   1.400000      0.0000000E+00   654453.3      0.0000000E+00
  8.8422894E-03 -5.5222828E-03  0.0000000E+00  0.0000000E+00   999999.9    
   1.400000      0.0000000E+00   654453.3      0.0000000E+00
  9.3568275E-03 -5.6524053E-03  0.0000000E+00  0.0000000E+00   999999.9    
   1.400000      0.0000000E+00   654453.3      0.0000000E+00
  9.8712556E-03 -5.7825027E-03  0.0000000E+00  0.0000000E+00   999999.9    
   1.400000      0.0000000E+00   654453.3      0.0000000E+00
  1.0385579E-02 -5.9125740E-03  0.0000000E+00  0.0000000E+00   999999.9    
   1.400000      0.0000000E+00   654453.3      0.0000000E+00
  1.0899802E-02 -6.0426192E-03  0.0000000E+00  0.0000000E+00   999999.9    
   1.400000      0.0000000E+00   654453.3      0.0000000E+00
  1.1413925E-02 -6.1726440E-03  0.0000000E+00  0.0000000E+00   999999.9    
   1.400000      0.0000000E+00   654453.3      0.0000000E+00
  1.1927955E-02 -6.3026450E-03  0.0000000E+00  0.0000000E+00   999999.9    
   1.400000      0.0000000E+00   654453.3      0.0000000E+00
  1.2441891E-02 -6.4326236E-03  0.0000000E+00  0.0000000E+00   999999.9    
   1.400000      0.0000000E+00   654453.3      0.0000000E+00
  1.2955739E-02 -6.5625827E-03  0.0000000E+00  0.0000000E+00   999999.9    
   1.400000      0.0000000E+00   654453.3      0.0000000E+00
  1.3469502E-02 -6.6925213E-03  0.0000000E+00  0.0000000E+00   999999.9    
   1.400000      0.0000000E+00   654453.3      0.0000000E+00
  1.3983180E-02 -6.8224380E-03  0.0000000E+00  0.0000000E+00   999999.9    
   1.400000      0.0000000E+00   654453.3      0.0000000E+00
  1.4496778E-02 -6.9523375E-03  0.0000000E+00  0.0000000E+00   999999.9    
   1.400000      0.0000000E+00   654453.3      0.0000000E+00
  1.5010295E-02 -7.0822178E-03  0.0000000E+00  0.0000000E+00   999999.9    
   1.400000      0.0000000E+00   654453.3      0.0000000E+00
  1.5523738E-02 -7.2120782E-03  0.0000000E+00  0.0000000E+00   999999.9    
   1.400000      0.0000000E+00   654453.3      0.0000000E+00
  1.6037108E-02 -7.3419237E-03  0.0000000E+00  0.0000000E+00   999999.9    
   1.400000      0.0000000E+00   654453.3      0.0000000E+00
  1.6550405E-02 -7.4717519E-03  0.0000000E+00  0.0000000E+00   999999.9    
   1.400000      0.0000000E+00   654453.3      0.0000000E+00
  1.7063634E-02 -7.6015638E-03  0.0000000E+00  0.0000000E+00   999999.9    
   1.400000      0.0000000E+00   654453.3      0.0000000E+00
  1.7576797E-02 -7.7313581E-03  0.0000000E+00  0.0000000E+00   999999.9    
   1.400000      0.0000000E+00   654453.3      0.0000000E+00
  1.8089892E-02 -7.8611383E-03  0.0000000E+00  0.0000000E+00   999999.9    
   1.400000      0.0000000E+00   654453.3      0.0000000E+00
  1.8602924E-02 -7.9909032E-03  0.0000000E+00  0.0000000E+00   999999.9    
   1.400000      0.0000000E+00   654453.3      0.0000000E+00
  1.9115895E-02 -8.1206532E-03  0.0000000E+00  0.0000000E+00   999999.9    
   1.400000      0.0000000E+00   654453.3      0.0000000E+00
  1.9628804E-02 -8.2503902E-03  0.0000000E+00  0.0000000E+00   999999.9    
   1.400000      0.0000000E+00   654453.3      0.0000000E+00
  2.0141656E-02 -8.3801122E-03  0.0000000E+00  0.0000000E+00   999999.9    
   1.400000      0.0000000E+00   654453.3      0.0000000E+00
  2.0654449E-02 -8.5098213E-03  0.0000000E+00  0.0000000E+00   999999.9    
   1.400000      0.0000000E+00   654453.3      0.0000000E+00
  2.1167189E-02 -8.6395172E-03  0.0000000E+00  0.0000000E+00   999999.9    
   1.400000      0.0000000E+00   654453.3      0.0000000E+00
  2.1679875E-02 -8.7692011E-03  0.0000000E+00  0.0000000E+00   999999.9    
   1.400000      0.0000000E+00   654453.3      0.0000000E+00
  2.2192508E-02 -8.8988710E-03  0.0000000E+00  0.0000000E+00   999999.9    
   1.400000      0.0000000E+00   654453.3      0.0000000E+00
  2.2705095E-02 -9.0285279E-03  0.0000000E+00  0.0000000E+00   999999.9    
   1.400000      0.0000000E+00   654453.3      0.0000000E+00
  1.9999999E-04 -5.4545449E-03  0.0000000E+00  0.0000000E+00   999999.9    
   1.400000      0.0000000E+00   654453.3      0.0000000E+00
  5.9999997E-04 -5.4545449E-03  0.0000000E+00  0.0000000E+00   999999.9    
   1.400000      0.0000000E+00   654453.3      0.0000000E+00
  9.9999993E-04 -5.4545449E-03  0.0000000E+00  0.0000000E+00   999999.9    
   1.400000      0.0000000E+00   654453.3      0.0000000E+00
  1.4000000E-03 -5.4545449E-03  0.0000000E+00  0.0000000E+00   999999.9    
   1.400000      0.0000000E+00   654453.3      0.0000000E+00
  1.8000001E-03 -5.4545449E-03  0.0000000E+00  0.0000000E+00   999999.9    
   1.400000      0.0000000E+00   654453.3      0.0000000E+00
  2.1064074E-03 -5.3896098E-03  0.0000000E+00  0.0000000E+00   999999.9    
   1.400000      0.0000000E+00   654453.3      0.0000000E+00
  2.3192200E-03 -5.2597402E-03  0.0000000E+00  0.0000000E+00   999999.9    
   1.400000      0.0000000E+00   654453.3      0.0000000E+00
  2.5320328E-03 -5.1298700E-03  0.0000000E+00  0.0000000E+00   999999.9    
   1.400000      0.0000000E+00   654453.3      0.0000000E+00
  2.7448474E-03 -4.9999999E-03  0.0000000E+00  0.0000000E+00   999999.9    
   1.400000      0.0000000E+00   654453.3      0.0000000E+00
  2.9576600E-03 -4.8701297E-03  0.0000000E+00  0.0000000E+00   999999.9    
   1.400000      0.0000000E+00   654453.3      0.0000000E+00
  3.1704723E-03 -4.7402596E-03  0.0000000E+00  0.0000000E+00   999999.9    
   1.400000      0.0000000E+00   654453.3      0.0000000E+00
  3.3832851E-03 -4.6103899E-03  0.0000000E+00  0.0000000E+00   999999.9    
   1.400000      0.0000000E+00   654453.3      0.0000000E+00
  3.5960975E-03 -4.4805184E-03  0.0000000E+00  0.0000000E+00   999999.9    
   1.400000      0.0000000E+00   654453.3      0.0000000E+00
  3.8089126E-03 -4.3506487E-03  0.0000000E+00  0.0000000E+00   999999.9    
   1.400000      0.0000000E+00   654453.3      0.0000000E+00
  4.0217252E-03 -4.2207795E-03  0.0000000E+00  0.0000000E+00   999999.9    
   1.400000      0.0000000E+00   654453.3      0.0000000E+00
  4.2345375E-03 -4.0909084E-03  0.0000000E+00  0.0000000E+00   999999.9    
   1.400000      0.0000000E+00   654453.3      0.0000000E+00
  4.4473526E-03 -3.9610374E-03  0.0000000E+00  0.0000000E+00   999999.9    
   1.400000      0.0000000E+00   654453.3      0.0000000E+00
  4.6601649E-03 -3.8311686E-03  0.0000000E+00  0.0000000E+00   999999.9    
   1.400000      0.0000000E+00   654453.3      0.0000000E+00
  4.8729777E-03 -3.7012999E-03  0.0000000E+00  0.0000000E+00   999999.9    
   1.400000      0.0000000E+00   654453.3      0.0000000E+00
  5.2230312E-03 -3.6903087E-03  0.0000000E+00  0.0000000E+00   999999.9    
   1.400000      0.0000000E+00   654453.3      0.0000000E+00
  5.7101310E-03 -3.7981539E-03  0.0000000E+00  0.0000000E+00   999999.9    
   1.400000      0.0000000E+00   654453.3      0.0000000E+00
  6.1968500E-03 -3.9059161E-03  0.0000000E+00  0.0000000E+00   999999.9    
   1.400000      0.0000000E+00   654453.3      0.0000000E+00
  6.6832011E-03 -4.0135998E-03  0.0000000E+00  0.0000000E+00   999999.9    
   1.400000      0.0000000E+00   654453.3      0.0000000E+00
  7.1692010E-03 -4.1212076E-03  0.0000000E+00  0.0000000E+00   999999.9    
   1.400000      0.0000000E+00   654453.3      0.0000000E+00
  7.6548615E-03 -4.2287414E-03  0.0000000E+00  0.0000000E+00   999999.9    
   1.400000      0.0000000E+00   654453.3      0.0000000E+00
  8.1401924E-03 -4.3362025E-03  0.0000000E+00  0.0000000E+00   999999.9    
   1.400000      0.0000000E+00   654453.3      0.0000000E+00
  8.6252093E-03 -4.4435961E-03  0.0000000E+00  0.0000000E+00   999999.9    
   1.400000      0.0000000E+00   654453.3      0.0000000E+00
  9.1099227E-03 -4.5509264E-03  0.0000000E+00  0.0000000E+00   999999.9    
   1.400000      0.0000000E+00   654453.3      0.0000000E+00
  9.5943427E-03 -4.6581910E-03  0.0000000E+00  0.0000000E+00   999999.9    
   1.400000      0.0000000E+00   654453.3      0.0000000E+00
  1.0078481E-02 -4.7653937E-03  0.0000000E+00  0.0000000E+00   999999.9    
   1.400000      0.0000000E+00   654453.3      0.0000000E+00
  1.0562347E-02 -4.8725372E-03  0.0000000E+00  0.0000000E+00   999999.9    
   1.400000      0.0000000E+00   654453.3      0.0000000E+00
  1.1045948E-02 -4.9796249E-03  0.0000000E+00  0.0000000E+00   999999.9    
   1.400000      0.0000000E+00   654453.3      0.0000000E+00
  1.1529297E-02 -5.0866571E-03  0.0000000E+00  0.0000000E+00   999999.9    
   1.400000      0.0000000E+00   654453.3      0.0000000E+00
  1.2012397E-02 -5.1936363E-03  0.0000000E+00  0.0000000E+00   999999.9    
   1.400000      0.0000000E+00   654453.3      0.0000000E+00
  1.2495263E-02 -5.3005652E-03  0.0000000E+00  0.0000000E+00   999999.9    
   1.400000      0.0000000E+00   654453.3      0.0000000E+00
  1.2977898E-02 -5.4074437E-03  0.0000000E+00  0.0000000E+00   999999.9    
   1.400000      0.0000000E+00   654453.3      0.0000000E+00
  1.3460312E-02 -5.5142725E-03  0.0000000E+00  0.0000000E+00   999999.9    
   1.400000      0.0000000E+00   654453.3      0.0000000E+00
  1.3942508E-02 -5.6210551E-03  0.0000000E+00  0.0000000E+00   999999.9    
   1.400000      0.0000000E+00   654453.3      0.0000000E+00
  1.4424498E-02 -5.7277922E-03  0.0000000E+00  0.0000000E+00   999999.9    
   1.400000      0.0000000E+00   654453.3      0.0000000E+00
  1.4906283E-02 -5.8344849E-03  0.0000000E+00  0.0000000E+00   999999.9    
   1.400000      0.0000000E+00   654453.3      0.0000000E+00
  1.5387876E-02 -5.9411358E-03  0.0000000E+00  0.0000000E+00   999999.9    
   1.400000      0.0000000E+00   654453.3      0.0000000E+00
  1.5869278E-02 -6.0477471E-03  0.0000000E+00  0.0000000E+00   999999.9    
   1.400000      0.0000000E+00   654453.3      0.0000000E+00
  1.6350497E-02 -6.1543179E-03  0.0000000E+00  0.0000000E+00   999999.9    
   1.400000      0.0000000E+00   654453.3      0.0000000E+00
  1.6831540E-02 -6.2608505E-03  0.0000000E+00  0.0000000E+00   999999.9    
   1.400000      0.0000000E+00   654453.3      0.0000000E+00
  1.7312407E-02 -6.3673449E-03  0.0000000E+00  0.0000000E+00   999999.9    
   1.400000      0.0000000E+00   654453.3      0.0000000E+00
  1.7793108E-02 -6.4738020E-03  0.0000000E+00  0.0000000E+00   999999.9    
   1.400000      0.0000000E+00   654453.3      0.0000000E+00
  1.8273646E-02 -6.5802252E-03  0.0000000E+00  0.0000000E+00   999999.9    
   1.400000      0.0000000E+00   654453.3      0.0000000E+00
  1.8754030E-02 -6.6866120E-03  0.0000000E+00  0.0000000E+00   999999.9    
   1.400000      0.0000000E+00   654453.3      0.0000000E+00
  1.9234257E-02 -6.7929658E-03  0.0000000E+00  0.0000000E+00   999999.9    
   1.400000      0.0000000E+00   654453.3      0.0000000E+00
  1.9714333E-02 -6.8992889E-03  0.0000000E+00  0.0000000E+00   999999.9    
   1.400000      0.0000000E+00   654453.3      0.0000000E+00
  2.0194266E-02 -7.0055816E-03  0.0000000E+00  0.0000000E+00   999999.9    
   1.400000      0.0000000E+00   654453.3      0.0000000E+00
  2.0674061E-02 -7.1118437E-03  0.0000000E+00  0.0000000E+00   999999.9    
   1.400000      0.0000000E+00   654453.3      0.0000000E+00
  2.1153716E-02 -7.2180741E-03  0.0000000E+00  0.0000000E+00   999999.9    
   1.400000      0.0000000E+00   654453.3      0.0000000E+00
  2.1633241E-02 -7.3242746E-03  0.0000000E+00  0.0000000E+00   999999.9    
   1.400000      0.0000000E+00   654453.3      0.0000000E+00
  1.9999999E-04 -4.0909075E-03  0.0000000E+00  0.0000000E+00   999999.9    
   1.400000      0.0000000E+00   654453.3      0.0000000E+00
  5.9999997E-04 -4.0909075E-03  0.0000000E+00  0.0000000E+00   999999.9    
   1.400000      0.0000000E+00   654453.3      0.0000000E+00
  9.9999993E-04 -4.0909075E-03  0.0000000E+00  0.0000000E+00   999999.9    
   1.400000      0.0000000E+00   654453.3      0.0000000E+00
  1.4000000E-03 -4.0909075E-03  0.0000000E+00  0.0000000E+00   999999.9    
   1.400000      0.0000000E+00   654453.3      0.0000000E+00
  1.8000001E-03 -4.0909075E-03  0.0000000E+00  0.0000000E+00   999999.9    
   1.400000      0.0000000E+00   654453.3      0.0000000E+00
  2.1064074E-03 -4.0422063E-03  0.0000000E+00  0.0000000E+00   999999.9    
   1.400000      0.0000000E+00   654453.3      0.0000000E+00
  2.3192200E-03 -3.9448054E-03  0.0000000E+00  0.0000000E+00   999999.9    
   1.400000      0.0000000E+00   654453.3      0.0000000E+00
  2.5320328E-03 -3.8474037E-03  0.0000000E+00  0.0000000E+00   999999.9    
   1.400000      0.0000000E+00   654453.3      0.0000000E+00
  2.7448474E-03 -3.7499999E-03  0.0000000E+00  0.0000000E+00   999999.9    
   1.400000      0.0000000E+00   654453.3      0.0000000E+00
  2.9576600E-03 -3.6525964E-03  0.0000000E+00  0.0000000E+00   999999.9    
   1.400000      0.0000000E+00   654453.3      0.0000000E+00
  3.1704723E-03 -3.5551947E-03  0.0000000E+00  0.0000000E+00   999999.9    
   1.400000      0.0000000E+00   654453.3      0.0000000E+00
  3.3832851E-03 -3.4577935E-03  0.0000000E+00  0.0000000E+00   999999.9    
   1.400000      0.0000000E+00   654453.3      0.0000000E+00
  3.5960975E-03 -3.3603900E-03  0.0000000E+00  0.0000000E+00   999999.9    
   1.400000      0.0000000E+00   654453.3      0.0000000E+00
  3.8089126E-03 -3.2629862E-03  0.0000000E+00  0.0000000E+00   999999.9    
   1.400000      0.0000000E+00   654453.3      0.0000000E+00
  4.0217252E-03 -3.1655848E-03  0.0000000E+00  0.0000000E+00   999999.9    
   1.400000      0.0000000E+00   654453.3      0.0000000E+00
  4.2345375E-03 -3.0681824E-03  0.0000000E+00  0.0000000E+00   999999.9    
   1.400000      0.0000000E+00   654453.3      0.0000000E+00
  4.4473526E-03 -2.9707788E-03  0.0000000E+00  0.0000000E+00   999999.9    
   1.400000      0.0000000E+00   654453.3      0.0000000E+00
  4.6601649E-03 -2.8733762E-03  0.0000000E+00  0.0000000E+00   999999.9    
   1.400000      0.0000000E+00   654453.3      0.0000000E+00
  4.8729777E-03 -2.7759736E-03  0.0000000E+00  0.0000000E+00   999999.9    
   1.400000      0.0000000E+00   654453.3      0.0000000E+00
  5.2089533E-03 -2.7706574E-03  0.0000000E+00  0.0000000E+00   999999.9    
   1.400000      0.0000000E+00   654453.3      0.0000000E+00
  5.6678145E-03 -2.8573764E-03  0.0000000E+00  0.0000000E+00   999999.9    
   1.400000      0.0000000E+00   654453.3      0.0000000E+00
  6.1261337E-03 -2.9439935E-03  0.0000000E+00  0.0000000E+00   999999.9    
   1.400000      0.0000000E+00   654453.3      0.0000000E+00
  6.5839314E-03 -3.0305122E-03  0.0000000E+00  0.0000000E+00   999999.9    
   1.400000      0.0000000E+00   654453.3      0.0000000E+00
  7.0412275E-03 -3.1169371E-03  0.0000000E+00  0.0000000E+00   999999.9    
   1.400000      0.0000000E+00   654453.3      0.0000000E+00
  7.4980422E-03 -3.2032738E-03  0.0000000E+00  0.0000000E+00   999999.9    
   1.400000      0.0000000E+00   654453.3      0.0000000E+00
  7.9543963E-03 -3.2895235E-03  0.0000000E+00  0.0000000E+00   999999.9    
   1.400000      0.0000000E+00   654453.3      0.0000000E+00
  8.4103066E-03 -3.3756914E-03  0.0000000E+00  0.0000000E+00   999999.9    
   1.400000      0.0000000E+00   654453.3      0.0000000E+00
  8.8657895E-03 -3.4617786E-03  0.0000000E+00  0.0000000E+00   999999.9    
   1.400000      0.0000000E+00   654453.3      0.0000000E+00
  9.3208617E-03 -3.5477888E-03  0.0000000E+00  0.0000000E+00   999999.9    
   1.400000      0.0000000E+00   654453.3      0.0000000E+00
  9.7755408E-03 -3.6337264E-03  0.0000000E+00  0.0000000E+00   999999.9    
   1.400000      0.0000000E+00   654453.3      0.0000000E+00
  1.0229840E-02 -3.7195927E-03  0.0000000E+00  0.0000000E+00   999999.9    
   1.400000      0.0000000E+00   654453.3      0.0000000E+00
  1.0683770E-02 -3.8053899E-03  0.0000000E+00  0.0000000E+00   999999.9    
   1.400000      0.0000000E+00   654453.3      0.0000000E+00
  1.1137347E-02 -3.8911211E-03  0.0000000E+00  0.0000000E+00   999999.9    
   1.400000      0.0000000E+00   654453.3      0.0000000E+00
  1.1590584E-02 -3.9767884E-03  0.0000000E+00  0.0000000E+00   999999.9    
   1.400000      0.0000000E+00   654453.3      0.0000000E+00
  1.2043491E-02 -4.0623960E-03  0.0000000E+00  0.0000000E+00   999999.9    
   1.400000      0.0000000E+00   654453.3      0.0000000E+00
  1.2496082E-02 -4.1479436E-03  0.0000000E+00  0.0000000E+00   999999.9    
   1.400000      0.0000000E+00   654453.3      0.0000000E+00
  1.2948369E-02 -4.2334325E-03  0.0000000E+00  0.0000000E+00   999999.9    
   1.400000      0.0000000E+00   654453.3      0.0000000E+00
  1.3400356E-02 -4.3188664E-03  0.0000000E+00  0.0000000E+00   999999.9    
   1.400000      0.0000000E+00   654453.3      0.0000000E+00
  1.3852060E-02 -4.4042473E-03  0.0000000E+00  0.0000000E+00   999999.9    
   1.400000      0.0000000E+00   654453.3      0.0000000E+00
  1.4303484E-02 -4.4895760E-03  0.0000000E+00  0.0000000E+00   999999.9    
   1.400000      0.0000000E+00   654453.3      0.0000000E+00
  1.4754641E-02 -4.5748549E-03  0.0000000E+00  0.0000000E+00   999999.9    
   1.400000      0.0000000E+00   654453.3      0.0000000E+00
  1.5205539E-02 -4.6600858E-03  0.0000000E+00  0.0000000E+00   999999.9    
   1.400000      0.0000000E+00   654453.3      0.0000000E+00
  1.5656188E-02 -4.7452701E-03  0.0000000E+00  0.0000000E+00   999999.9    
   1.400000      0.0000000E+00   654453.3      0.0000000E+00
  1.6106596E-02 -4.8304084E-03  0.0000000E+00  0.0000000E+00   999999.9    
   1.400000      0.0000000E+00   654453.3      0.0000000E+00
  1.6556768E-02 -4.9155038E-03  0.0000000E+00  0.0000000E+00   999999.9    
   1.400000      0.0000000E+00   654453.3      0.0000000E+00
  1.7006708E-02 -5.0005550E-03  0.0000000E+00  0.0000000E+00   999999.9    
   1.400000      0.0000000E+00   654453.3      0.0000000E+00
  1.7456433E-02 -5.0855665E-03  0.0000000E+00  0.0000000E+00   999999.9    
   1.400000      0.0000000E+00   654453.3      0.0000000E+00
  1.7905941E-02 -5.1705372E-03  0.0000000E+00  0.0000000E+00   999999.9    
   1.400000      0.0000000E+00   654453.3      0.0000000E+00
  1.8355245E-02 -5.2554691E-03  0.0000000E+00  0.0000000E+00   999999.9    
   1.400000      0.0000000E+00   654453.3      0.0000000E+00
  1.8804345E-02 -5.3403629E-03  0.0000000E+00  0.0000000E+00   999999.9    
   1.400000      0.0000000E+00   654453.3      0.0000000E+00
  1.9253250E-02 -5.4252213E-03  0.0000000E+00  0.0000000E+00   999999.9    
   1.400000      0.0000000E+00   654453.3      0.0000000E+00
  1.9701965E-02 -5.5100452E-03  0.0000000E+00  0.0000000E+00   999999.9    
   1.400000      0.0000000E+00   654453.3      0.0000000E+00
  2.0150499E-02 -5.5948314E-03  0.0000000E+00  0.0000000E+00   999999.9    
   1.400000      0.0000000E+00   654453.3      0.0000000E+00
  2.0598849E-02 -5.6795850E-03  0.0000000E+00  0.0000000E+00   999999.9    
   1.400000      0.0000000E+00   654453.3      0.0000000E+00
  1.9999999E-04 -2.7272725E-03  0.0000000E+00  0.0000000E+00   999999.9    
   1.400000      0.0000000E+00   654453.3      0.0000000E+00
  5.9999997E-04 -2.7272725E-03  0.0000000E+00  0.0000000E+00   999999.9    
   1.400000      0.0000000E+00   654453.3      0.0000000E+00
  9.9999993E-04 -2.7272725E-03  0.0000000E+00  0.0000000E+00   999999.9    
   1.400000      0.0000000E+00   654453.3      0.0000000E+00
  1.4000000E-03 -2.7272725E-03  0.0000000E+00  0.0000000E+00   999999.9    
   1.400000      0.0000000E+00   654453.3      0.0000000E+00
  1.8000001E-03 -2.7272725E-03  0.0000000E+00  0.0000000E+00   999999.9    
   1.400000      0.0000000E+00   654453.3      0.0000000E+00
  2.1064074E-03 -2.6948052E-03  0.0000000E+00  0.0000000E+00   999999.9    
   1.400000      0.0000000E+00   654453.3      0.0000000E+00
  2.3192200E-03 -2.6298699E-03  0.0000000E+00  0.0000000E+00   999999.9    
   1.400000      0.0000000E+00   654453.3      0.0000000E+00
  2.5320328E-03 -2.5649350E-03  0.0000000E+00  0.0000000E+00   999999.9    
   1.400000      0.0000000E+00   654453.3      0.0000000E+00
  2.7448474E-03 -2.4999999E-03  0.0000000E+00  0.0000000E+00   999999.9    
   1.400000      0.0000000E+00   654453.3      0.0000000E+00
  2.9576600E-03 -2.4350649E-03  0.0000000E+00  0.0000000E+00   999999.9    
   1.400000      0.0000000E+00   654453.3      0.0000000E+00
  3.1704723E-03 -2.3701298E-03  0.0000000E+00  0.0000000E+00   999999.9    
   1.400000      0.0000000E+00   654453.3      0.0000000E+00
  3.3832851E-03 -2.3051947E-03  0.0000000E+00  0.0000000E+00   999999.9    
   1.400000      0.0000000E+00   654453.3      0.0000000E+00
  3.5960975E-03 -2.2402601E-03  0.0000000E+00  0.0000000E+00   999999.9    
   1.400000      0.0000000E+00   654453.3      0.0000000E+00
  3.8089126E-03 -2.1753251E-03  0.0000000E+00  0.0000000E+00   999999.9    
   1.400000      0.0000000E+00   654453.3      0.0000000E+00
  4.0217252E-03 -2.1103900E-03  0.0000000E+00  0.0000000E+00   999999.9    
   1.400000      0.0000000E+00   654453.3      0.0000000E+00
  4.2345375E-03 -2.0454549E-03  0.0000000E+00  0.0000000E+00   999999.9    
   1.400000      0.0000000E+00   654453.3      0.0000000E+00
  4.4473526E-03 -1.9805201E-03  0.0000000E+00  0.0000000E+00   999999.9    
   1.400000      0.0000000E+00   654453.3      0.0000000E+00
  4.6601649E-03 -1.9155849E-03  0.0000000E+00  0.0000000E+00   999999.9    
   1.400000      0.0000000E+00   654453.3      0.0000000E+00
  4.8729777E-03 -1.8506487E-03  0.0000000E+00  0.0000000E+00   999999.9    
   1.400000      0.0000000E+00   654453.3      0.0000000E+00
  5.1948978E-03 -1.8517062E-03  0.0000000E+00  0.0000000E+00   999999.9    
   1.400000      0.0000000E+00   654453.3      0.0000000E+00
  5.6256037E-03 -1.9187100E-03  0.0000000E+00  0.0000000E+00   999999.9    
   1.400000      0.0000000E+00   654453.3      0.0000000E+00
  6.0556876E-03 -1.9856174E-03  0.0000000E+00  0.0000000E+00   999999.9    
   1.400000      0.0000000E+00   654453.3      0.0000000E+00
  6.4851735E-03 -2.0524310E-03  0.0000000E+00  0.0000000E+00   999999.9    
   1.400000      0.0000000E+00   654453.3      0.0000000E+00
  6.9140876E-03 -2.1191563E-03  0.0000000E+00  0.0000000E+00   999999.9    
   1.400000      0.0000000E+00   654453.3      0.0000000E+00
  7.3424536E-03 -2.1857976E-03  0.0000000E+00  0.0000000E+00   999999.9    
   1.400000      0.0000000E+00   654453.3      0.0000000E+00
  7.7702957E-03 -2.2523575E-03  0.0000000E+00  0.0000000E+00   999999.9    
   1.400000      0.0000000E+00   654453.3      0.0000000E+00
  8.1976354E-03 -2.3188400E-03  0.0000000E+00  0.0000000E+00   999999.9    
   1.400000      0.0000000E+00   654453.3      0.0000000E+00
  8.6244941E-03 -2.3852473E-03  0.0000000E+00  0.0000000E+00   999999.9    
   1.400000      0.0000000E+00   654453.3      0.0000000E+00
  9.0508871E-03 -2.4515826E-03  0.0000000E+00  0.0000000E+00   999999.9    
   1.400000      0.0000000E+00   654453.3      0.0000000E+00
  9.4768358E-03 -2.5178497E-03  0.0000000E+00  0.0000000E+00   999999.9    
   1.400000      0.0000000E+00   654453.3      0.0000000E+00
  9.9023581E-03 -2.5840523E-03  0.0000000E+00  0.0000000E+00   999999.9    
   1.400000      0.0000000E+00   654453.3      0.0000000E+00
  1.0327470E-02 -2.6501915E-03  0.0000000E+00  0.0000000E+00   999999.9    
   1.400000      0.0000000E+00   654453.3      0.0000000E+00
  1.0752186E-02 -2.7162672E-03  0.0000000E+00  0.0000000E+00   999999.9    
   1.400000      0.0000000E+00   654453.3      0.0000000E+00
  1.1176522E-02 -2.7822852E-03  0.0000000E+00  0.0000000E+00   999999.9    
   1.400000      0.0000000E+00   654453.3      0.0000000E+00
  1.1600492E-02 -2.8482464E-03  0.0000000E+00  0.0000000E+00   999999.9    
   1.400000      0.0000000E+00   654453.3      0.0000000E+00
  1.2024109E-02 -2.9141523E-03  0.0000000E+00  0.0000000E+00   999999.9    
   1.400000      0.0000000E+00   654453.3      0.0000000E+00
  1.2447387E-02 -2.9800062E-03  0.0000000E+00  0.0000000E+00   999999.9    
   1.400000      0.0000000E+00   654453.3      0.0000000E+00
  1.2870338E-02 -3.0458085E-03  0.0000000E+00  0.0000000E+00   999999.9    
   1.400000      0.0000000E+00   654453.3      0.0000000E+00
  1.3292973E-02 -3.1115627E-03  0.0000000E+00  0.0000000E+00   999999.9    
   1.400000      0.0000000E+00   654453.3      0.0000000E+00
  1.3715302E-02 -3.1772698E-03  0.0000000E+00  0.0000000E+00   999999.9    
   1.400000      0.0000000E+00   654453.3      0.0000000E+00
  1.4137334E-02 -3.2429311E-03  0.0000000E+00  0.0000000E+00   999999.9    
   1.400000      0.0000000E+00   654453.3      0.0000000E+00
  1.4559085E-02 -3.3085486E-03  0.0000000E+00  0.0000000E+00   999999.9    
   1.400000      0.0000000E+00   654453.3      0.0000000E+00
  1.4980560E-02 -3.3741246E-03  0.0000000E+00  0.0000000E+00   999999.9    
   1.400000      0.0000000E+00   654453.3      0.0000000E+00
  1.5401770E-02 -3.4396586E-03  0.0000000E+00  0.0000000E+00   999999.9    
   1.400000      0.0000000E+00   654453.3      0.0000000E+00
  1.5822722E-02 -3.5051524E-03  0.0000000E+00  0.0000000E+00   999999.9    
   1.400000      0.0000000E+00   654453.3      0.0000000E+00
  1.6243426E-02 -3.5706079E-03  0.0000000E+00  0.0000000E+00   999999.9    
   1.400000      0.0000000E+00   654453.3      0.0000000E+00
  1.6663890E-02 -3.6360251E-03  0.0000000E+00  0.0000000E+00   999999.9    
   1.400000      0.0000000E+00   654453.3      0.0000000E+00
  1.7084120E-02 -3.7014075E-03  0.0000000E+00  0.0000000E+00   999999.9    
   1.400000      0.0000000E+00   654453.3      0.0000000E+00
  1.7504124E-02 -3.7667553E-03  0.0000000E+00  0.0000000E+00   999999.9    
   1.400000      0.0000000E+00   654453.3      0.0000000E+00
  1.7923912E-02 -3.8320674E-03  0.0000000E+00  0.0000000E+00   999999.9    
   1.400000      0.0000000E+00   654453.3      0.0000000E+00
  1.8343490E-02 -3.8973487E-03  0.0000000E+00  0.0000000E+00   999999.9    
   1.400000      0.0000000E+00   654453.3      0.0000000E+00
  1.8762860E-02 -3.9625987E-03  0.0000000E+00  0.0000000E+00   999999.9    
   1.400000      0.0000000E+00   654453.3      0.0000000E+00
  1.9182030E-02 -4.0278151E-03  0.0000000E+00  0.0000000E+00   999999.9    
   1.400000      0.0000000E+00   654453.3      0.0000000E+00
  1.9601012E-02 -4.0930021E-03  0.0000000E+00  0.0000000E+00   999999.9    
   1.400000      0.0000000E+00   654453.3      0.0000000E+00
  1.9999999E-04 -1.3636374E-03  0.0000000E+00  0.0000000E+00   999999.9    
   1.400000      0.0000000E+00   654453.3      0.0000000E+00
  5.9999997E-04 -1.3636374E-03  0.0000000E+00  0.0000000E+00   999999.9    
   1.400000      0.0000000E+00   654453.3      0.0000000E+00