 title="contour"
 variables="x","y","u","v",
 "p","den","mach","entropy","vmu",
 zone i=          88  j=          49  f=point
  3.8461499E-02  -1.500000       1.232873      3.6494958E-04   50.93935    
   5.722815      0.3681386       565542.4      0.0000000E+00
  0.1153845      -1.500000       1.318184      1.1770433E-03   49.41072    
   5.585287      0.3948236       565644.9      0.0000000E+00
  0.1923075      -1.500000       1.326683      2.3436612E-03   49.11089    
   5.558274      0.3976157       565657.4      0.0000000E+00
  0.2692305      -1.500000       1.322716      3.7463624E-03   49.09250    
   5.556573      0.3964413       565663.6      0.0000000E+00
  0.3461535      -1.500000       1.306757      5.4540532E-03   49.24307    
   5.570067      0.3915353       565667.2      0.0000000E+00
  0.4230765      -1.500000       1.285003      7.5893155E-03   49.43346    
   5.587120      0.3848664       565671.4      0.0000000E+00
  0.5000000      -1.500000       1.259263      1.0240325E-02   49.60165    
   5.602165      0.3770296       565676.0      0.0000000E+00
  0.5769235      -1.500000       1.225222      1.3583902E-02   49.82265    
   5.621961      0.3666796       565676.6      0.0000000E+00
  0.6538465      -1.500000       1.179758      1.8020781E-02   50.11995    
   5.648760      0.3528820       565652.4      0.0000000E+00
  0.7307695      -1.500000       1.119658      2.4508350E-02   50.49945    
   5.682765      0.3346885       565641.8      0.0000000E+00
  0.8076925      -1.500000       1.037907      3.5913318E-02   50.95984    
   5.720278      0.3099757       566086.0      0.0000000E+00
  0.8846154      -1.500000      0.9363710      6.1286505E-02   51.40694    
   5.753331      0.2796660       566922.1      0.0000000E+00
  0.9615384      -1.500000      0.7466533      0.1353242       51.23467    
   5.732378      0.2261192       567625.8      0.0000000E+00
   1.029794      -1.500000      0.6620277      0.3443683       54.17966    
   5.988364      0.2210180       568104.1      0.0000000E+00
   1.089381      -1.450000      0.8227605      0.5431136       51.69889    
   5.769214      0.2933897       568164.6      0.0000000E+00
   1.148969      -1.400000      0.9615471      0.6789703       50.28136    
   5.643648      0.3513225       568121.8      0.0000000E+00
   1.208557      -1.350000       1.076446      0.7875035       49.18081    
   5.545212      0.3989803       568144.5      0.0000000E+00
   1.268144      -1.300000       1.194158      0.8869461       48.00133    
   5.438898      0.4460705       568210.8      0.0000000E+00
   1.327732      -1.250000       1.324898      0.9878299       46.63717    
   5.314918      0.4970164       568337.7      0.0000000E+00
   1.387320      -1.200000       1.482701       1.099276       44.94509    
   5.159596      0.5571285       568573.2      0.0000000E+00
   1.446908      -1.150000       1.695284       1.233003       42.66311    
   4.945879      0.6358495       569253.3      0.0000000E+00
   1.506495      -1.100000       2.029066       1.390498       39.64741    
   4.647901      0.7502997       572098.9      0.0000000E+00
   1.566083      -1.050000       2.820024       1.499141       33.66596    
   4.021420      0.9833500       583005.9      0.0000000E+00
   1.645387      -1.000000       3.920701       1.189341       13.83346    
   1.890874       1.349459       619920.3      0.0000000E+00
   1.744405      -1.026647       4.002396      0.4302921       7.969628    
   1.153027       1.364052       666070.9      0.0000000E+00
   1.843424      -1.053294       3.854846     -0.5400130       8.228198    
   1.170691       1.308009       674632.8      0.0000000E+00
   1.942443      -1.079941       3.563210     -0.9743649       9.634645    
   1.320322       1.218252       678858.2      0.0000000E+00
   2.041461      -1.106588       3.389667     -0.9815261       11.19433    
   1.503147       1.152013       669848.1      0.0000000E+00
   2.140480      -1.133235       3.333622     -0.9571962       12.32958    
   1.632184       1.124203       665057.3      0.0000000E+00
   2.239499      -1.159882       3.306022     -0.9349087       13.07076    
   1.715337       1.108794       662247.5      0.0000000E+00
   2.338518      -1.186529       3.308612     -0.9164008       13.57770    
   1.778025       1.106794       657513.1      0.0000000E+00
   2.437537      -1.213175       3.327682     -0.9130045       13.86289    
   1.817031       1.112938       653216.4      0.0000000E+00
   2.536555      -1.239822       3.362097     -0.9156560       13.94778    
   1.837627       1.126778       647949.2      0.0000000E+00
   2.635574      -1.266469       3.403044     -0.9219603       13.93586    
   1.842042       1.141946       645440.6      0.0000000E+00
   2.734593      -1.293116       3.449600     -0.9310143       13.87368    
   1.838335       1.158691       644193.8      0.0000000E+00
   2.833612      -1.319763       3.504520     -0.9418455       13.73249    
   1.826483       1.179017       642855.8      0.0000000E+00
   2.932631      -1.346410       3.568480     -0.9529098       13.49932    
   1.804381       1.202994       641709.1      0.0000000E+00
   3.031650      -1.373057       3.638438     -0.9636633       13.19047    
   1.773025       1.229360       641031.8      0.0000000E+00
   3.130669      -1.399704       3.710995     -0.9749727       12.83016    
   1.734972       1.256982       640801.9      0.0000000E+00
   3.229687      -1.426351       3.783366     -0.9874628       12.44534    
   1.693360       1.284916       640888.6      0.0000000E+00
   3.328707      -1.452998       3.854832      -1.000830       12.05069    
   1.650150       1.312929       641109.5      0.0000000E+00
   3.427725      -1.479645       3.925641      -1.014538       11.65092    
   1.606169       1.341160       641302.6      0.0000000E+00
   3.526743      -1.506292       3.995901      -1.028350       11.24971    
   1.562053       1.369721       641334.5      0.0000000E+00
   3.625762      -1.532939       4.065068      -1.042012       10.85123    
   1.518125       1.398349       641256.1      0.0000000E+00
   3.724782      -1.559586       4.132209      -1.055369       10.45992    
   1.474583       1.426556       641217.5      0.0000000E+00
   3.823800      -1.586233       4.196920      -1.068655       10.08064    
   1.431894       1.454113       641269.2      0.0000000E+00
   3.922819      -1.612880       4.259257      -1.081741       9.714927    
   1.390242       1.480974       641424.8      0.0000000E+00
   4.021838      -1.639526       4.319396      -1.094615       9.363192    
   1.349663       1.507143       641711.4      0.0000000E+00
   4.120857      -1.666173       4.377595      -1.107115       9.024510    
   1.310113       1.532695       642117.4      0.0000000E+00
   4.219875      -1.692820       4.433969      -1.119203       8.698354    
   1.271610       1.557680       642615.1      0.0000000E+00
   4.318894      -1.719467       4.488480      -1.130952       8.385019    
   1.234259       1.582090       643179.5      0.0000000E+00
   4.417913      -1.746114       4.541090      -1.142435       8.084849    
   1.198157       1.605912       643790.4      0.0000000E+00
   4.516932      -1.772761       4.591784      -1.153679       7.797970    
   1.163371       1.629134       644431.4      0.0000000E+00
   4.615951      -1.799408       4.640598      -1.164672       7.524209    
   1.129920       1.651757       645091.0      0.0000000E+00
   4.714970      -1.826055       4.687606      -1.175400       7.263137    
   1.097786       1.673799       645760.9      0.0000000E+00
   4.813989      -1.852702       4.732888      -1.185852       7.014205    
   1.066935       1.695282       646434.7      0.0000000E+00
   4.913007      -1.879349       4.776534      -1.196021       6.776871    
   1.037325       1.716229       647107.7      0.0000000E+00
   5.012026      -1.905996       4.818635      -1.205909       6.550525    
   1.008906       1.736669       647775.3      0.0000000E+00
   5.111045      -1.932643       4.859282      -1.215529       6.334616    
  0.9816321       1.756630       648432.6      0.0000000E+00
   5.210064      -1.959290       4.898548      -1.224898       6.128639    
  0.9554603       1.776136       649076.8      0.0000000E+00
   5.309083      -1.985937       4.936509      -1.234029       5.932112    
  0.9303480       1.795209       649704.8      0.0000000E+00
   5.408102      -2.012584       4.973293      -1.242969       5.744549    
  0.9062542       1.813899       650310.7      0.0000000E+00
   5.507120      -2.039230       5.008992      -1.251739       5.565334    
  0.8831169       1.832241       650891.0      0.0000000E+00
   5.606139      -2.065877       5.043667      -1.260352       5.394169    
  0.8609107       1.850253       651444.3      0.0000000E+00
   5.705158      -2.092524       5.077415      -1.268798       5.230615    
  0.8395894       1.867961       651971.1      0.0000000E+00
   5.804177      -2.119171       5.110332      -1.277072       5.074155    
  0.8190962       1.885401       652471.8      0.0000000E+00
   5.903196      -2.145818       5.142488      -1.285182       4.924384    
  0.7993858       1.902593       652948.2      0.0000000E+00
   6.002214      -2.172465       5.173943      -1.293128       4.780944    
  0.7804194       1.919557       653401.8      0.0000000E+00
   6.101233      -2.199112       5.204754      -1.300923       4.643457    
  0.7621524       1.936308       653835.8      0.0000000E+00
   6.200253      -2.225759       5.234969      -1.308577       4.511621    
  0.7445512       1.952860       654252.6      0.0000000E+00
   6.299272      -2.252406       5.264631      -1.316100       4.385125    
  0.7275795       1.969225       654655.1      0.0000000E+00
   6.398290      -2.279053       5.293778      -1.323512       4.263707    
  0.7112069       1.985412       655046.9      0.0000000E+00
   6.497309      -2.305700       5.322430      -1.330820       4.147186    
  0.6954129       2.001419       655431.9      0.0000000E+00
   6.596327      -2.332347       5.350537      -1.338055       4.035443    
  0.6801882       2.017221       655810.7      0.0000000E+00
   6.695346      -2.358994       5.377857      -1.345228       3.928674    
  0.6655665       2.032711       656182.7      0.0000000E+00
   6.794365      -2.385641       5.404220      -1.352287       3.827006    
  0.6515747       2.047802       656544.6      0.0000000E+00
   6.893384      -2.412288       5.429824      -1.359181       3.729760    
  0.6381190       2.062566       656908.4      0.0000000E+00
   6.992403      -2.438935       5.455890      -1.365622       3.634592    
  0.6248527       2.077479       657318.3      0.0000000E+00
   7.091421      -2.465581       5.485996      -1.371048       3.537986    
  0.6113427       2.094067       657714.3      0.0000000E+00
   7.190441      -2.492228       5.520088      -1.379096       3.432717    
  0.5966566       2.113252       657998.9      0.0000000E+00
   7.289459      -2.518875       5.559567      -1.387165       3.345011    
  0.5838722       2.132702       658926.7      0.0000000E+00
   7.388477      -2.545522       5.574253      -1.397055       3.272434    
  0.5730226       2.142301       660046.3      0.0000000E+00
   7.487496      -2.572169       5.568960      -1.409666       3.224768    
  0.5675641       2.147005       658323.9      0.0000000E+00
   7.586516      -2.598816       5.552847      -1.421776       3.226916    
  0.5684775       2.143295       657429.1      0.0000000E+00
   7.685534      -2.625463       5.506990      -1.443969       3.281174    
  0.5771033       2.127060       655918.4      0.0000000E+00
   7.784553      -2.652110       5.391293      -1.470104       3.463941    
  0.6026642       2.076510       655655.2      0.0000000E+00
   7.883572      -2.678757       5.126088      -1.473124       3.933795    
  0.6637537       1.951774       659299.8      0.0000000E+00
   7.982591      -2.705404       4.595658      -1.357719       4.898088    
  0.7823660       1.706181       667313.6      0.0000000E+00
  3.8461499E-02  -1.438776       1.233460      1.4679964E-03   50.92730    
   5.721724      0.3683224       565544.4      0.0000000E+00
  0.1153845      -1.438776       1.318907      4.4414336E-03   49.38957    
   5.583374      0.3950590       565646.8      0.0000000E+00
  0.1923075      -1.438776       1.327444      8.2987882E-03   49.08555    
   5.555988      0.3978719       565658.6      0.0000000E+00
  0.2692305      -1.438776       1.323497      1.2736391E-02   49.06392    
   5.553999      0.3967157       565664.4      0.0000000E+00
  0.3461535      -1.438776       1.307834      1.8197620E-02   49.20757    
   5.566874      0.3919214       565667.9      0.0000000E+00
  0.4230765      -1.438776       1.286420      2.5063762E-02   49.38905    
   5.583130      0.3853927       565672.1      0.0000000E+00
  0.5000000      -1.438776       1.261030      3.3499315E-02   49.54874    
   5.597417      0.3777207       565676.5      0.0000000E+00
  0.5769235      -1.438776       1.227517      4.4074502E-02   49.75895    
   5.616253      0.3676289       565676.8      0.0000000E+00
  0.6538465      -1.438776       1.182900      5.8034029E-02   50.04082    
   5.641682      0.3542639       565652.4      0.0000000E+00
  0.7307695      -1.438776       1.124224      7.7806897E-02   50.39917    
   5.673745      0.3368437       565649.4      0.0000000E+00
  0.8076925      -1.438776       1.045319      0.1086834       50.82790    
   5.708769      0.3137751       566055.0      0.0000000E+00
  0.8846154      -1.438776      0.9535871      0.1585330       51.26977    
   5.742392      0.2882113       566766.8      0.0000000E+00
  0.9615384      -1.438776      0.8110021      0.2446883       51.04829    
   5.718606      0.2525861       567277.5      0.0000000E+00
   1.029794      -1.438776      0.7559755      0.4143800       51.91306    
   5.793249      0.2565625       567537.6      0.0000000E+00
   1.089381      -1.390816      0.8741317      0.5624010       50.19450    
   5.639697      0.3103895       567641.0      0.0000000E+00
   1.148969      -1.342857      0.9937271      0.6812507       48.93683    
   5.527003      0.3607153       567673.6      0.0000000E+00
   1.208557      -1.294898       1.102883      0.7851544       47.92046    
   5.435362      0.4061891       567718.4      0.0000000E+00
   1.268144      -1.246939       1.221702      0.8846604       46.72687    
   5.327233      0.4537221       567772.8      0.0000000E+00
   1.327732      -1.198980       1.358899      0.9872663       45.26568    
   5.193955      0.5068788       567859.9      0.0000000E+00
   1.387320      -1.151020       1.528399       1.100742       43.40531    
   5.022532      0.5707871       568041.7      0.0000000E+00
   1.446908      -1.103061       1.761175       1.234259       40.94129    
   4.791114      0.6554117       568606.1      0.0000000E+00
   1.506495      -1.055102       2.107351       1.352021       37.62119    
   4.467858      0.7686762       570567.8      0.0000000E+00
   1.566083      -1.007143       2.819941       1.352674       30.96782    
   3.791760      0.9749652       577525.6      0.0000000E+00
   1.644958     -0.9591839       3.781296      0.8546862       19.11713    
   2.488500       1.246042       606095.8      0.0000000E+00
   1.743119     -0.9849730       3.944875     -5.8685027E-02   12.15764    
   1.642888       1.292038       650404.1      0.0000000E+00
   1.841279      -1.010762       3.910581     -0.8374078       10.62740    
   1.461301       1.321138       658954.1      0.0000000E+00
   1.939440      -1.036551       3.806232      -1.122586       10.46496    
   1.438651       1.310783       661780.2      0.0000000E+00
   2.037601      -1.062340       3.660269      -1.120415       11.00447    
   1.500470       1.259232       659967.5      0.0000000E+00
   2.135763      -1.088129       3.532212      -1.062251       11.92709    
   1.610956       1.207639       654047.3      0.0000000E+00
   2.233923      -1.113919       3.446007     -0.9990315       12.77138    
   1.704103       1.167573       652458.9      0.0000000E+00
   2.332084      -1.139708       3.413999     -0.9744572       13.38339    
   1.774212       1.151609       649858.8      0.0000000E+00
   2.430245      -1.165497       3.417701     -0.9603876       13.75506    
   1.818581       1.149972       647439.4      0.0000000E+00
   2.528407      -1.191286       3.437932     -0.9601839       13.91552    
   1.844903       1.157868       643239.4      0.0000000E+00
   2.626568      -1.217075       3.469585     -0.9625203       13.94029    
   1.853763       1.169724       640506.2      0.0000000E+00
   2.724729      -1.242864       3.509373     -0.9654270       13.89845    
   1.851599       1.183521       639524.4      0.0000000E+00
   2.822890      -1.268653       3.558038     -0.9689122       13.78035    
   1.842158       1.201136       638187.6      0.0000000E+00
   2.921051      -1.294443       3.615582     -0.9749078       13.57957    
   1.823574       1.222509       636975.1      0.0000000E+00
   3.019212      -1.320232       3.681039     -0.9835958       13.30611    
   1.796591       1.247268       635982.7      0.0000000E+00
   3.117373      -1.346021       3.751341     -0.9938373       12.97871    
   1.763382       1.274349       635089.8      0.0000000E+00
   3.215534      -1.371810       3.823066      -1.005331       12.61971    
   1.726011       1.302396       634416.5      0.0000000E+00
   3.313695      -1.397599       3.894697      -1.017612       12.24136    
   1.685730       1.330784       633981.8      0.0000000E+00
   3.411856      -1.423388       3.965865      -1.030360       11.84926    
   1.643236       1.359380       633737.2      0.0000000E+00
   3.510017      -1.449177       4.035961      -1.043445       11.44943    
   1.599333       1.387999       633608.4      0.0000000E+00
   3.608178      -1.474967       4.104023      -1.056528       11.05381    
   1.555492       1.416239       633517.8      0.0000000E+00
   3.706339      -1.500756       4.169722      -1.069630       10.67090    
   1.512692       1.443893       633454.6      0.0000000E+00
   3.804500      -1.526545       4.233310      -1.082492       10.29922    
   1.470710       1.470990       633461.8      0.0000000E+00
   3.902661      -1.552334       4.294950      -1.094816       9.938081    
   1.429502       1.497560       633533.9      0.0000000E+00
   4.000822      -1.578123       4.354850      -1.106589       9.588696    
   1.389275       1.523665       633645.3      0.0000000E+00
   4.098983      -1.603912       4.413091      -1.117716       9.250974    
   1.350031       1.549304       633802.8      0.0000000E+00
   4.197145      -1.629702       4.469573      -1.128423       8.925408    
   1.311831       1.574430       634018.8      0.0000000E+00
   4.295305      -1.655491       4.524205      -1.138906       8.612349    
   1.274741       1.599004       634292.8      0.0000000E+00
   4.393466      -1.681280       4.576958      -1.149242       8.311865    
   1.238808       1.623009       634619.2      0.0000000E+00
   4.491628      -1.707069       4.627832      -1.159438       8.023896    
   1.204063       1.646431       634990.6      0.0000000E+00
   4.589788      -1.732858       4.676859      -1.169475       7.748280    
   1.170523       1.669269       635399.2      0.0000000E+00
   4.687950      -1.758647       4.724095      -1.179327       7.484727    
   1.138192       1.691534       635835.1      0.0000000E+00
   4.786110      -1.784436       4.769614      -1.188975       7.232851    
   1.107057       1.713244       636290.1      0.0000000E+00
   4.884271      -1.810226       4.813494      -1.198407       6.992210    
   1.077097       1.734421       636756.7      0.0000000E+00
   4.982432      -1.836015       4.855820      -1.207620       6.762318    
   1.048280       1.755091       637227.2      0.0000000E+00
   5.080593      -1.861804       4.896674      -1.216626       6.542707    
   1.020574       1.775280       637695.7      0.0000000E+00
   5.178754      -1.887593       4.936134      -1.225438       6.332912    
  0.9939429       1.795013       638157.7      0.0000000E+00
   5.276916      -1.913382       4.974288      -1.234058       6.132479    
  0.9683512       1.814320       638608.3      0.0000000E+00
   5.375077      -1.939171       5.011228      -1.242521       5.940834    
  0.9437448       1.833234       639043.8      0.0000000E+00
   5.473238      -1.964960       5.047027      -1.250868       5.757557    
  0.9200870       1.851785       639460.6      0.0000000E+00
   5.571399      -1.990750       5.081775      -1.259095       5.582250    
  0.8973413       1.869999       639856.6      0.0000000E+00
   5.669559      -2.016539       5.115561      -1.267183       5.414504    
  0.8754669       1.887905       640230.9      0.0000000E+00
   5.767721      -2.042328       5.148478      -1.275123       5.253900    
  0.8544192       1.905529       640584.2      0.0000000E+00
   5.865882      -2.068117       5.180595      -1.282919       5.100057    
  0.8341575       1.922893       640918.0      0.0000000E+00
   5.964043      -2.093906       5.211976      -1.290571       4.952620    
  0.8146435       1.940016       641232.8      0.0000000E+00
   6.062204      -2.119695       5.242674      -1.298089       4.811260    
  0.7958400       1.956912       641532.0      0.0000000E+00
   6.160365      -2.145485       5.272731      -1.305477       4.675678    
  0.7777146       1.973592       641816.8      0.0000000E+00
   6.258526      -2.171274       5.302190      -1.312750       4.545578    
  0.7602327       1.990067       642090.7      0.0000000E+00
   6.356687      -2.197063       5.331083      -1.319919       4.420694    
  0.7433650       2.006343       642355.9      0.0000000E+00
   6.454848      -2.222852       5.359445      -1.326995       4.300769    
  0.7270811       2.022428       642616.2      0.0000000E+00
   6.553009      -2.248641       5.387303      -1.333977       4.185595    
  0.7113572       2.038324       642875.1      0.0000000E+00
   6.651170      -2.274430       5.414587      -1.340845       4.075051    
  0.6961809       2.053991       643136.4      0.0000000E+00
   6.749331      -2.300219       5.441152      -1.347534       3.969315    
  0.6815834       2.069346       643400.8      0.0000000E+00
   6.847492      -2.326009       5.466756      -1.354119       3.868563    
  0.6675985       2.084288       643665.6      0.0000000E+00
   6.945653      -2.351798       5.491341      -1.360780       3.772398    
  0.6541795       2.098814       643931.1      0.0000000E+00
   7.043815      -2.377587       5.516358      -1.367659       3.679759    
  0.6412425       2.113597       644126.6      0.0000000E+00
   7.141976      -2.403376       5.543675      -1.376340       3.584599    
  0.6279896       2.129889       644199.4      0.0000000E+00
   7.240137      -2.429165       5.574875      -1.385458       3.484761    
  0.6137242       2.147650       644653.9      0.0000000E+00
   7.338297      -2.454954       5.611357      -1.391603       3.396590    
  0.6007937       2.166129       645430.1      0.0000000E+00
   7.436459      -2.480743       5.626818      -1.395485       3.315798    
  0.5893326       2.177335       645555.9      0.0000000E+00
   7.534620      -2.506533       5.618926      -1.394930       3.262396    
  0.5816174       2.177735       645793.4      0.0000000E+00
   7.632781      -2.532322       5.594598      -1.386568       3.258076    
  0.5811439       2.168650       645600.4      0.0000000E+00
   7.730941      -2.558111       5.530597      -1.368936       3.298359    
  0.5869665       2.141197       645424.0      0.0000000E+00
   7.829103      -2.583900       5.372837      -1.314005       3.471847    
  0.6101209       2.065668       647048.0      0.0000000E+00
   7.927263      -2.609689       4.994555      -1.098934       3.940822    
  0.6690427       1.877202       653905.4      0.0000000E+00
  3.8461499E-02  -1.377551       1.234828      2.5620717E-03   50.90350    
   5.719558      0.3687479       565549.8      0.0000000E+00
  0.1153845      -1.377551       1.320736      7.5267130E-03   49.35354    
   5.580102      0.3956395       565651.9      0.0000000E+00
  0.1923075      -1.377551       1.329546      1.3757062E-02   49.04591    
   5.552395      0.3985475       565662.6      0.0000000E+00
  0.2692305      -1.377551       1.325743      2.1006735E-02   49.01873    
   5.549911      0.3974573       565668.1      0.0000000E+00
  0.3461535      -1.377551       1.310859      3.0020632E-02   49.15022    
   5.561698      0.3929394       565671.1      0.0000000E+00
  0.4230765      -1.377551       1.290365      4.1300405E-02   49.31799    
   5.576731      0.3867559       565674.9      0.0000000E+00
  0.5000000      -1.377551       1.266015      5.5056535E-02   49.46574    
   5.589954      0.3795034       565679.0      0.0000000E+00
  0.5769235      -1.377551       1.234068      7.2251782E-02   49.65922    
   5.607310      0.3700618       565677.8      0.0000000E+00
  0.6538465      -1.377551       1.192013      9.4903827E-02   49.91452    
   5.630423      0.3577873       565646.6      0.0000000E+00
  0.7307695      -1.377551       1.138002      0.1267866       50.22686    
   5.658391      0.3423851       565643.7      0.0000000E+00
  0.8076925      -1.377551       1.068772      0.1746062       50.56017    
   5.685592      0.3235214       565967.0      0.0000000E+00
  0.8846154      -1.377551      0.9951017      0.2446922       50.87518    
   5.709882      0.3058377       566442.4      0.0000000E+00
  0.9615384      -1.377551      0.9065437      0.3377407       50.56378    
   5.680144      0.2888598       566691.5      0.0000000E+00
   1.029794      -1.377551      0.8875821      0.4611398       51.23991    
   5.739812      0.2982343       566757.4      0.0000000E+00
   1.089381      -1.331633      0.9783509      0.5646273       49.98638    
   5.627048      0.3376371       566889.1      0.0000000E+00
   1.148969      -1.285714       1.082376      0.6670518       48.78167    
   5.518219      0.3809545       567008.9      0.0000000E+00
   1.208557      -1.239796       1.184166      0.7646695       47.73470    
   5.423738      0.4232943       567045.4      0.0000000E+00
   1.268144      -1.193878       1.301775      0.8593839       46.50586    
   5.312619      0.4696784       567046.6      0.0000000E+00
   1.327732      -1.147959       1.443904      0.9566256       45.02378    
   5.177773      0.5232692       567050.4      0.0000000E+00
   1.387320      -1.102041       1.623019       1.063021       43.16775    
   5.007085      0.5886593       567129.6      0.0000000E+00
   1.446908      -1.056122       1.867800       1.168508       40.82208    
   4.786902      0.6721222       567579.0      0.0000000E+00
   1.506495      -1.010204       2.225650       1.222987       37.45124    
   4.466095      0.7812663       568272.8      0.0000000E+00
   1.566083     -0.9642860       2.837450       1.163389       31.09801    
   3.843493      0.9604650       570135.0      0.0000000E+00
   1.644528     -0.9183671       3.675890      0.8401774       23.34019    
   2.996979       1.203718       585440.7      0.0000000E+00
   1.741832     -0.9432991       4.039984      8.0764033E-02   15.87090    
   2.122790       1.316539       614750.4      0.0000000E+00
   1.839135     -0.9682299       4.113158     -0.6560087       12.01942    
   1.675504       1.385401       627278.3      0.0000000E+00
   1.936438     -0.9931610       4.091186      -1.051387       11.04993    
   1.559937       1.413920       631022.6      0.0000000E+00
   2.033741      -1.018093       4.033498      -1.198227       11.16905    
   1.566577       1.403876       634420.5      0.0000000E+00
   2.131045      -1.043024       3.929611      -1.210035       11.72426    
   1.625229       1.363798       635818.6      0.0000000E+00
   2.228348      -1.067956       3.811521      -1.158713       12.55042    
   1.723208       1.315064       632226.8      0.0000000E+00
   2.325651      -1.092887       3.727775      -1.105356       13.28584    
   1.800061       1.275007       633471.5      0.0000000E+00
   2.422955      -1.117818       3.693848      -1.065029       13.68286    
   1.848832       1.258910       630791.9      0.0000000E+00
   2.520257      -1.142750       3.694026      -1.048093       13.87324    
   1.876867       1.258216       627554.8      0.0000000E+00
   2.617561      -1.167681       3.702291      -1.039007       13.91262    
   1.886703       1.261522       625204.7      0.0000000E+00
   2.714864      -1.192612       3.719818      -1.032187       13.88050    
   1.884834       1.267295       624541.1      0.0000000E+00
   2.812167      -1.217544       3.747670      -1.026793       13.78175    
   1.876730       1.277445       623473.6      0.0000000E+00
   2.909471      -1.242475       3.786494      -1.021812       13.59727    
   1.859748       1.292163       622213.8      0.0000000E+00
   3.006774      -1.267406       3.835015      -1.021075       13.33301    
   1.833960       1.311249       620950.4      0.0000000E+00
   3.104077      -1.292338       3.890211      -1.023399       13.01307    
   1.801463       1.333342       619857.2      0.0000000E+00
   3.201381      -1.317269       3.949970      -1.027895       12.65702    
   1.764565       1.357657       618825.2      0.0000000E+00
   3.298684      -1.342201       4.012139      -1.033746       12.28127    
   1.724857       1.383257       617923.2      0.0000000E+00
   3.395987      -1.367132       4.075126      -1.040263       11.89533    
   1.683249       1.409451       617205.0      0.0000000E+00