  Title="2D heat conduction problem"
  Variables="x","y","T"
  ZONE I=101       J=101      F=POINT
        0.00000            0.00000            888.00140
        0.00101            0.00000            888.00140
        0.00303            0.00000            523.68359
        0.00505            0.00000            523.87476
        0.00707            0.00000            524.13495
        0.00909            0.00000            524.46411
        0.01111            0.00000            524.86127
        0.01313            0.00000            525.32611
        0.01515            0.00000            525.85779
        0.01717            0.00000            526.45538
        0.01919            0.00000            527.11804
        0.02121            0.00000            527.84460
        0.02323            0.00000            528.63385
        0.02525            0.00000            529.48456
        0.02727            0.00000            530.39514
        0.02929            0.00000            531.36426
        0.03131            0.00000            532.39038
        0.03333            0.00000            533.47198
        0.03535            0.00000            534.60693
        0.03737            0.00000            535.79376
        0.03939            0.00000            537.03033
        0.04141            0.00000            538.31488
        0.04343            0.00000            539.64539
        0.04545            0.00000            541.01990
        0.04747            0.00000            542.43634
        0.04949            0.00000            543.89264
        0.05152            0.00000            545.38672
        0.05354            0.00000            546.91644
        0.05556            0.00000            548.47992
        0.05758            0.00000            550.07465
        0.05960            0.00000            551.69885
        0.06162            0.00000            553.35022
        0.06364            0.00000            555.02655
        0.06566            0.00000            556.72577
        0.06768            0.00000            558.44592
        0.06970            0.00000            560.18506
        0.07172            0.00000            561.94116
        0.07374            0.00000            563.71252
        0.07576            0.00000            565.49689
        0.07778            0.00000            567.29272
        0.07980            0.00000            569.09821
        0.08182            0.00000            570.91144
        0.08384            0.00000            572.73071
        0.08586            0.00000            574.55457
        0.08788            0.00000            576.38116
        0.08990            0.00000            578.20911
        0.09192            0.00000            580.03705
        0.09394            0.00000            581.86353
        0.09596            0.00000            583.68713
        0.09798            0.00000            585.50671
        0.10000            0.00000            587.32098
        0.10202            0.00000            589.12878
        0.10404            0.00000            590.92920
        0.10606            0.00000            592.72119
        0.10808            0.00000            594.50354
        0.11010            0.00000            596.27563
        0.11212            0.00000            598.03656
        0.11414            0.00000            599.78552
        0.11616            0.00000            601.52173
        0.11818            0.00000            603.24475
        0.12020            0.00000            604.95386
        0.12222            0.00000            606.64832
        0.12424            0.00000            608.32758
        0.12626            0.00000            609.99139
        0.12828            0.00000            611.63928
        0.13030            0.00000            613.27087
        0.13232            0.00000            614.88568
        0.13434            0.00000            616.48370
        0.13636            0.00000            618.06464
        0.13838            0.00000            619.62817
        0.14040            0.00000            621.17407
        0.14242            0.00000            622.70239
        0.14444            0.00000            624.21283
        0.14646            0.00000            625.70532
        0.14848            0.00000            627.17975
        0.15050            0.00000            628.63635
        0.15253            0.00000            630.07471
        0.15455            0.00000            631.49493
        0.15657            0.00000            632.89709
        0.15859            0.00000            634.28119
        0.16061            0.00000            635.64716
        0.16263            0.00000            636.99518
        0.16465            0.00000            638.32495
        0.16667            0.00000            639.63702
        0.16869            0.00000            640.93115
        0.17071            0.00000            642.20746
        0.17273            0.00000            643.46625
        0.17475            0.00000            644.70728
        0.17677            0.00000            645.93079
        0.17879            0.00000            647.13666
        0.18081            0.00000            648.32538
        0.18283            0.00000            649.49670
        0.18485            0.00000            650.65088
        0.18687            0.00000            651.78802
        0.18889            0.00000            652.90784
        0.19091            0.00000            654.01099
        0.19293            0.00000            655.09729
        0.19495            0.00000            656.16675
        0.19697            0.00000            657.21973
        0.19899            0.00000            658.25623
        0.20000            0.00000            658.76569
        0.00000            0.00051            887.98865
        0.00101            0.00051            887.98865
        0.00303            0.00051            523.28613
        0.00505            0.00051            523.47748
        0.00707            0.00051            523.73798
        0.00909            0.00051            524.06750
        0.01111            0.00051            524.46509
        0.01313            0.00051            524.93042
        0.01515            0.00051            525.46265
        0.01717            0.00051            526.06085
        0.01919            0.00051            526.72424
        0.02121            0.00051            527.45154
        0.02323            0.00051            528.24164
        0.02525            0.00051            529.09320
        0.02727            0.00051            530.00476
        0.02929            0.00051            530.97491
        0.03131            0.00051            532.00214
        0.03333            0.00051            533.08484
        0.03535            0.00051            534.22101
        0.03737            0.00051            535.40912
        0.03939            0.00051            536.64697
        0.04141            0.00051            537.93286
        0.04343            0.00051            539.26477
        0.04545            0.00051            540.64075
        0.04747            0.00051            542.05872
        0.04949            0.00051            543.51654
        0.05152            0.00051            545.01221
        0.05354            0.00051            546.54352
        0.05556            0.00051            548.10864
        0.05758            0.00051            549.70508
        0.05960            0.00051            551.33099
        0.06162            0.00051            552.98407
        0.06364            0.00051            554.66217
        0.06566            0.00051            556.36322
        0.06768            0.00051            558.08521
        0.06970            0.00051            559.82617
        0.07172            0.00051            561.58411
        0.07374            0.00051            563.35736
        0.07576            0.00051            565.14362
        0.07778            0.00051            566.94135
        0.07980            0.00051            568.74872
        0.08182            0.00051            570.56384
        0.08384            0.00051            572.38507
        0.08586            0.00051            574.21082
        0.08788            0.00051            576.03937
        0.08990            0.00051            577.86920
        0.09192            0.00051            579.69910
        0.09394            0.00051            581.52753
        0.09596            0.00051            583.35303
        0.09798            0.00051            585.17456
        0.10000            0.00051            586.99072
        0.10202            0.00051            588.80042
        0.10404            0.00051            590.60278
        0.10606            0.00051            592.39667
        0.10808            0.00051            594.18085
        0.11010            0.00051            595.95483
        0.11212            0.00051            597.71765
        0.11414            0.00051            599.46844
        0.11616            0.00051            601.20648
        0.11818            0.00051            602.93134
        0.12020            0.00051            604.64221
        0.12222            0.00051            606.33844
        0.12424            0.00051            608.01953
        0.12626            0.00051            609.68506
        0.12828            0.00051            611.33472
        0.13030            0.00051            612.96802
        0.13232            0.00051            614.58453
        0.13434            0.00051            616.18427
        0.13636            0.00051            617.76685
        0.13838            0.00051            619.33203
        0.14040            0.00051            620.87958
        0.14242            0.00051            622.40948
        0.14444            0.00051            623.92151
        0.14646            0.00051            625.41559
        0.14848            0.00051            626.89160
        0.15050            0.00051            628.34973
        0.15253            0.00051            629.78961
        0.15455            0.00051            631.21130
        0.15657            0.00051            632.61499
        0.15859            0.00051            634.00055
        0.16061            0.00051            635.36792
        0.16263            0.00051            636.71741
        0.16465            0.00051            638.04858
        0.16667            0.00051            639.36200
        0.16869            0.00051            640.65753
        0.17071            0.00051            641.93518
        0.17273            0.00051            643.19525
        0.17475            0.00051            644.43762
        0.17677            0.00051            645.66241
        0.17879            0.00051            646.86957
        0.18081            0.00051            648.05957
        0.18283            0.00051            649.23212
        0.18485            0.00051            650.38751
        0.18687            0.00051            651.52582
        0.18889            0.00051            652.64685
        0.19091            0.00051            653.75116
        0.19293            0.00051            654.83862
        0.19495            0.00051            655.90918
        0.19697            0.00051            656.96326
        0.19899            0.00051            658.00085
        0.20000            0.00051            658.51086
        0.00000            0.00152            522.39984
        0.00101            0.00152            522.39984
        0.00303            0.00152            522.52344
        0.00505            0.00152            522.71527
        0.00707            0.00152            522.97620
        0.00909            0.00152            523.30615
        0.01111            0.00152            523.70447
        0.01313            0.00152            524.17059
        0.01515            0.00152            524.70367
        0.01717            0.00152            525.30292
        0.01919            0.00152            525.96735
        0.02121            0.00152            526.69586
        0.02323            0.00152            527.48730
        0.02525            0.00152            528.34033
        0.02727            0.00152            529.25342
        0.02929            0.00152            530.22516
        0.03131            0.00152            531.25415
        0.03333            0.00152            532.33856
        0.03535            0.00152            533.47668
        0.03737            0.00152            534.66675
        0.03939            0.00152            535.90674
        0.04141            0.00152            537.19476
        0.04343            0.00152            538.52899
        0.04545            0.00152            539.90729
        0.04747            0.00152            541.32770
        0.04949            0.00152            542.78802
        0.05152            0.00152            544.28625
        0.05354            0.00152            545.82031
        0.05556            0.00152            547.38806
        0.05758            0.00152            548.98737
        0.05960            0.00152            550.61609
        0.06162            0.00152            552.27209
        0.06364            0.00152            553.95312
        0.06566            0.00152            555.65723
        0.06768            0.00152            557.38220
        0.06970            0.00152            559.12628
        0.07172            0.00152            560.88751
        0.07374            0.00152            562.66382
        0.07576            0.00152            564.45343
        0.07778            0.00152            566.25446
        0.07980            0.00152            568.06506
        0.08182            0.00152            569.88354
        0.08384            0.00152            571.70819
        0.08586            0.00152            573.53723
        0.08788            0.00152            575.36920
        0.08990            0.00152            577.20251
        0.09192            0.00152            579.03583
        0.09394            0.00152            580.86774
        0.09596            0.00152            582.69672
        0.09798            0.00152            584.52167
        0.10000            0.00152            586.34137
        0.10202            0.00152            588.15454
        0.10404            0.00152            589.96039
        0.10606            0.00152            591.75769
        0.10808            0.00152            593.54547
        0.11010            0.00152            595.32288
        0.11212            0.00152            597.08911
        0.11414            0.00152            598.84338
        0.11616            0.00152            600.58490
        0.11818            0.00152            602.31305
        0.12020            0.00152            604.02734
        0.12222            0.00152            605.72699
        0.12424            0.00152            607.41144
        0.12626            0.00152            609.08032
        0.12828            0.00152            610.73328
        0.13030            0.00152            612.36987
        0.13232            0.00152            613.98975
        0.13434            0.00152            615.59265
        0.13636            0.00152            617.17847
        0.13838            0.00152            618.74683
        0.14040            0.00152            620.29755
        0.14242            0.00152            621.83051
        0.14444            0.00152            623.34570
        0.14646            0.00152            624.84283
        0.14848            0.00152            626.32202
        0.15050            0.00152            627.78308
        0.15253            0.00152            629.22595
        0.15455            0.00152            630.65057
        0.15657            0.00152            632.05713
        0.15859            0.00152            633.44550
        0.16061            0.00152            634.81573
        0.16263            0.00152            636.16797
        0.16465            0.00152            637.50208
        0.16667            0.00152            638.81818
        0.16869            0.00152            640.11646
        0.17071            0.00152            641.39679
        0.17273            0.00152            642.65942
        0.17475            0.00152            643.90436
        0.17677            0.00152            645.13171
        0.17879            0.00152            646.34137
        0.18081            0.00152            647.53387
        0.18283            0.00152            648.70892
        0.18485            0.00152            649.86670
        0.18687            0.00152            651.00732
        0.18889            0.00152            652.13074
        0.19091            0.00152            653.23737
        0.19293            0.00152            654.32703
        0.19495            0.00152            655.39984
        0.19697            0.00152            656.45612
        0.19899            0.00152            657.49585
        0.20000            0.00152            658.00696
        0.00000            0.00253            521.65240
        0.00101            0.00253            521.65240
        0.00303            0.00253            521.77618
        0.00505            0.00253            521.96844
        0.00707            0.00253            522.22986
        0.00909            0.00253            522.56024
        0.01111            0.00253            522.95917
        0.01313            0.00253            523.42596
        0.01515            0.00253            523.95996
        0.01717            0.00253            524.56018
        0.01919            0.00253            525.22571
        0.02121            0.00253            525.95551
        0.02323            0.00253            526.74823
        0.02525            0.00253            527.60254
        0.02727            0.00253            528.51709
        0.02929            0.00253            529.49060
        0.03131            0.00253            530.52118
        0.03333            0.00253            531.60730
        0.03535            0.00253            532.74731
        0.03737            0.00253            533.93933
        0.03939            0.00253            535.18134
        0.04141            0.00253            536.47156
        0.04343            0.00253            537.80792
        0.04545            0.00253            539.18854
        0.04747            0.00253            540.61133
        0.04949            0.00253            542.07410
        0.05152            0.00253            543.57489
        0.05354            0.00253            545.11151
        0.05556            0.00253            546.68188
        0.05758            0.00253            548.28387
        0.05960            0.00253            549.91547
        0.06162            0.00253            551.57434
        0.06364            0.00253            553.25830
        0.06566            0.00253            554.96521
        0.06768            0.00253            556.69318
        0.06970            0.00253            558.44031
        0.07172            0.00253            560.20471
        0.07374            0.00253            561.98413
        0.07576            0.00253            563.77692
        0.07778            0.00253            565.58118
        0.07980            0.00253            567.39496
        0.08182            0.00253            569.21674
        0.08384            0.00253            571.04468
        0.08586            0.00253            572.87701
        0.08788            0.00253            574.71240
        0.08990            0.00253            576.54901
        0.09192            0.00253            578.38568
        0.09394            0.00253            580.22101
        0.09596            0.00253            582.05341
        0.09798            0.00253            583.88177
        0.10000            0.00253            585.70483
        0.10202            0.00253            587.52142
        0.10404            0.00253            589.33069
        0.10606            0.00253            591.13135
        0.10808            0.00253            592.92255
        0.11010            0.00253            594.70337
        0.11212            0.00253            596.47296
        0.11414            0.00253            598.23059
        0.11616            0.00253            599.97552
        0.11818            0.00253            601.70709
        0.12020            0.00253            603.42474
        0.12222            0.00253            605.12781
        0.12424            0.00253            606.81549
        0.12626            0.00253            608.48767
        0.12828            0.00253            610.14386
        0.13030            0.00253            611.78363
        0.13232            0.00253            613.40680
        0.13434            0.00253            615.01288
        0.13636            0.00253            616.60181
        0.13838            0.00253            618.17328
        0.14040            0.00253            619.72711
        0.14242            0.00253            621.26312
        0.14444            0.00253            622.78137
        0.14646            0.00253            624.28149
        0.14848            0.00253            625.76361
        0.15050            0.00253            627.22760
        0.15253            0.00253            628.67334
        0.15455            0.00253            630.10089
        0.15657            0.00253            631.51038
        0.15859            0.00253            632.90155
        0.16061            0.00253            634.27466
        0.16263            0.00253            635.62952
        0.16465            0.00253            636.96637
        0.16667            0.00253            638.28516
        0.16869            0.00253            639.58606
        0.17071            0.00253            640.86902
        0.17273            0.00253            642.13422
        0.17475            0.00253            643.38165
        0.17677            0.00253            644.61151
        0.17879            0.00253            645.82373
        0.18081            0.00253            647.01855
        0.18283            0.00253            648.19604
        0.18485            0.00253            649.35620
        0.18687            0.00253            650.49908
        0.18889            0.00253            651.62488
        0.19091            0.00253            652.73376
        0.19293            0.00253            653.82562
        0.19495            0.00253            654.90070
        0.19697            0.00253            655.95905
        0.19899            0.00253            657.00073
        0.20000            0.00253            657.51288
        0.00000            0.00354            520.92059
        0.00101            0.00354            520.92059
        0.00303            0.00354            521.04462
        0.00505            0.00354            521.23724
        0.00707            0.00354            521.49908
        0.00909            0.00354            521.82990
        0.01111            0.00354            522.22943
        0.01313            0.00354            522.69696
        0.01515            0.00354            523.23181
        0.01717            0.00354            523.83295
        0.01919            0.00354            524.49957
        0.02121            0.00354            525.23047
        0.02323            0.00354            526.02441
        0.02525            0.00354            526.88013
        0.02727            0.00354            527.79614
        0.02929            0.00354            528.77124
        0.03131            0.00354            529.80341
        0.03333            0.00354            530.89130
        0.03535            0.00354            532.03302
        0.03737            0.00354            533.22693
        0.03939            0.00354            534.47101
        0.04141            0.00354            535.76318
        0.04343            0.00354            537.10181
        0.04545            0.00354            538.48468
        0.04747            0.00354            539.90973
        0.04949            0.00354            541.37494
        0.05152            0.00354            542.87817
        0.05354            0.00354            544.41736
        0.05556            0.00354            545.99030
        0.05758            0.00354            547.59491
        0.05960            0.00354            549.22919
        0.06162            0.00354            550.89099
        0.06364            0.00354            552.57776
        0.06566            0.00354            554.28748
        0.06768            0.00354            556.01843
        0.06970            0.00354            557.76849
        0.07172            0.00354            559.53589
        0.07374            0.00354            561.31836
        0.07576            0.00354            563.11426
        0.07778            0.00354            564.92163
        0.07980            0.00354            566.73865
        0.08182            0.00354            568.56360
        0.08384            0.00354            570.39471
        0.08586            0.00354            572.23041
        0.08788            0.00354            574.06903
        0.08990            0.00354            575.90900
        0.09192            0.00354            577.74896
        0.09394            0.00354            579.58752
        0.09596            0.00354            581.42322
        0.09798            0.00354            583.25494
        0.10000            0.00354            585.08136
        0.10202            0.00354            586.90131
        0.10404            0.00354            588.71381
        0.10606            0.00354            590.51782
        0.10808            0.00354            592.31238
        0.11010            0.00354            594.09650
        0.11212            0.00354            595.86945
        0.11414            0.00354            597.63037
        0.11616            0.00354            599.37860
        0.11818            0.00354            601.11340
        0.12020            0.00354            602.83441
        0.12222            0.00354            604.54071
        0.12424            0.00354            606.23163
        0.12626            0.00354            607.90698
        0.12828            0.00354            609.56641
        0.13030            0.00354            611.20935
        0.13232            0.00354            612.83551
        0.13434            0.00354            614.44476
        0.13636            0.00354            616.03674
        0.13838            0.00354            617.61127
        0.14040            0.00354            619.16815
        0.14242            0.00354            620.70721
        0.14444            0.00354            622.22833
        0.14646            0.00354            623.73151
        0.14848            0.00354            625.21649
        0.15050            0.00354            626.68335
        0.15253            0.00354            628.13196
        0.15455            0.00354            629.56232
        0.15657            0.00354            630.97455
        0.15859            0.00354            632.36853
        0.16061            0.00354            633.74432
        0.16263            0.00354            635.10181
        0.16465            0.00354            636.44135
        0.16667            0.00354            637.76270
        0.16869            0.00354            639.06622
        0.17071            0.00354            640.35175
        0.17273            0.00354            641.61951
        0.17475            0.00354            642.86945
        0.17677            0.00354            644.10168
        0.17879            0.00354            645.31641
        0.18081            0.00354            646.51361
        0.18283            0.00354            647.69342
        0.18485            0.00354            648.85583
        0.18687            0.00354            650.00110
        0.18889            0.00354            651.12921
        0.19091            0.00354            652.24023
        0.19293            0.00354            653.33429
        0.19495            0.00354            654.41150
        0.19697            0.00354            655.47192
        0.19899            0.00354            656.51550
        0.20000            0.00354            657.02863
        0.00000            0.00455            520.20471
        0.00101            0.00455            520.20471
        0.00303            0.00455            520.32867
        0.00505            0.00455            520.52155
        0.00707            0.00455            520.78381
        0.00909            0.00455            521.11511
        0.01111            0.00455            521.51538
        0.01313            0.00455            521.98358
        0.01515            0.00455            522.51917
        0.01717            0.00455            523.12128
        0.01919            0.00455            523.78888
        0.02121            0.00455            524.52094
        0.02323            0.00455            525.31610
        0.02525            0.00455            526.17316
        0.02727            0.00455            527.09064
        0.02929            0.00455            528.06708
        0.03131            0.00455            529.10095
        0.03333            0.00455            530.19049
        0.03535            0.00455            531.33405
        0.03737            0.00455            532.52972
        0.03939            0.00455            533.77576
        0.04141            0.00455            535.07007
        0.04343            0.00455            536.41077
        0.04545            0.00455            537.79572
        0.04747            0.00455            539.22302
        0.04949            0.00455            540.69061
        0.05152            0.00455            542.19629
        0.05354            0.00455            543.73792