  Title="2D heat conduction problem"
  Variables="x","y","T"
  ZONE I=101       J=101      F=POINT
        0.00000            0.00000            864.52917
        0.00101            0.00000            864.52917
        0.00303            0.00000            485.75937
        0.00505            0.00000            485.87683
        0.00707            0.00000            486.03665
        0.00909            0.00000            486.23840
        0.01111            0.00000            486.48215
        0.01313            0.00000            486.76736
        0.01515            0.00000            487.09372
        0.01717            0.00000            487.46082
        0.01919            0.00000            487.86789
        0.02121            0.00000            488.31473
        0.02323            0.00000            488.80045
        0.02525            0.00000            489.32443
        0.02727            0.00000            489.88593
        0.02929            0.00000            490.48425
        0.03131            0.00000            491.11804
        0.03333            0.00000            491.78690
        0.03535            0.00000            492.48984
        0.03737            0.00000            493.22589
        0.03939            0.00000            493.99414
        0.04141            0.00000            494.79355
        0.04343            0.00000            495.62299
        0.04545            0.00000            496.48151
        0.04747            0.00000            497.36804
        0.04949            0.00000            498.28131
        0.05152            0.00000            499.22037
        0.05354            0.00000            500.18387
        0.05556            0.00000            501.17075
        0.05758            0.00000            502.17978
        0.05960            0.00000            503.20972
        0.06162            0.00000            504.25940
        0.06364            0.00000            505.32803
        0.06566            0.00000            506.41364
        0.06768            0.00000            507.51547
        0.06970            0.00000            508.63251
        0.07172            0.00000            509.76349
        0.07374            0.00000            510.90732
        0.07576            0.00000            512.06293
        0.07778            0.00000            513.22919
        0.07980            0.00000            514.40515
        0.08182            0.00000            515.58972
        0.08384            0.00000            516.78168
        0.08586            0.00000            517.98035
        0.08788            0.00000            519.18451
        0.08990            0.00000            520.39349
        0.09192            0.00000            521.60608
        0.09394            0.00000            522.82159
        0.09596            0.00000            524.03906
        0.09798            0.00000            525.25787
        0.10000            0.00000            526.47693
        0.10202            0.00000            527.69580
        0.10404            0.00000            528.91345
        0.10606            0.00000            530.12952
        0.10808            0.00000            531.34314
        0.11010            0.00000            532.55383
        0.11212            0.00000            533.76099
        0.11414            0.00000            534.96375
        0.11616            0.00000            536.16193
        0.11818            0.00000            537.35504
        0.12020            0.00000            538.54248
        0.12222            0.00000            539.72382
        0.12424            0.00000            540.89832
        0.12626            0.00000            542.06573
        0.12828            0.00000            543.22571
        0.13030            0.00000            544.37799
        0.13232            0.00000            545.52209
        0.13434            0.00000            546.65790
        0.13636            0.00000            547.78516
        0.13838            0.00000            548.90363
        0.14040            0.00000            550.01318
        0.14242            0.00000            551.11328
        0.14444            0.00000            552.20416
        0.14646            0.00000            553.28558
        0.14848            0.00000            554.35736
        0.15050            0.00000            555.41931
        0.15253            0.00000            556.47150
        0.15455            0.00000            557.51367
        0.15657            0.00000            558.54584
        0.15859            0.00000            559.56799
        0.16061            0.00000            560.58008
        0.16263            0.00000            561.58197
        0.16465            0.00000            562.57361
        0.16667            0.00000            563.55511
        0.16869            0.00000            564.52631
        0.17071            0.00000            565.48730
        0.17273            0.00000            566.43799
        0.17475            0.00000            567.37836
        0.17677            0.00000            568.30853
        0.17879            0.00000            569.22845
        0.18081            0.00000            570.13824
        0.18283            0.00000            571.03784
        0.18485            0.00000            571.92725
        0.18687            0.00000            572.80627
        0.18889            0.00000            573.67535
        0.19091            0.00000            574.53418
        0.19293            0.00000            575.38293
        0.19495            0.00000            576.22168
        0.19697            0.00000            577.05042
        0.19899            0.00000            577.86902
        0.20000            0.00000            578.27313
        0.00000            0.00051            864.50690
        0.00101            0.00051            864.50690
        0.00303            0.00051            485.49924
        0.00505            0.00051            485.61679
        0.00707            0.00051            485.77670
        0.00909            0.00051            485.97858
        0.01111            0.00051            486.22247
        0.01313            0.00051            486.50787
        0.01515            0.00051            486.83444
        0.01717            0.00051            487.20175
        0.01919            0.00051            487.60910
        0.02121            0.00051            488.05621
        0.02323            0.00051            488.54224
        0.02525            0.00051            489.06653
        0.02727            0.00051            489.62839
        0.02929            0.00051            490.22708
        0.03131            0.00051            490.86127
        0.03333            0.00051            491.53055
        0.03535            0.00051            492.23395
        0.03737            0.00051            492.97046
        0.03939            0.00051            493.73920
        0.04141            0.00051            494.53909
        0.04343            0.00051            495.36905
        0.04545            0.00051            496.22812
        0.04747            0.00051            497.11520
        0.04949            0.00051            498.02905
        0.05152            0.00051            498.96869
        0.05354            0.00051            499.93280
        0.05556            0.00051            500.92029
        0.05758            0.00051            501.92996
        0.05960            0.00051            502.96054
        0.06162            0.00051            504.01089
        0.06364            0.00051            505.08020
        0.06566            0.00051            506.16647
        0.06768            0.00051            507.26901
        0.06970            0.00051            508.38675
        0.07172            0.00051            509.51843
        0.07374            0.00051            510.66299
        0.07576            0.00051            511.81934
        0.07778            0.00051            512.98633
        0.07980            0.00051            514.16302
        0.08182            0.00051            515.34833
        0.08384            0.00051            516.54102
        0.08586            0.00051            517.74048
        0.08788            0.00051            518.94537
        0.08990            0.00051            520.15509
        0.09192            0.00051            521.36847
        0.09394            0.00051            522.58472
        0.09596            0.00051            523.80298
        0.09798            0.00051            525.02252
        0.10000            0.00051            526.24237
        0.10202            0.00051            527.46198
        0.10404            0.00051            528.68042
        0.10606            0.00051            529.89728
        0.10808            0.00051            531.11163
        0.11010            0.00051            532.32306
        0.11212            0.00051            533.53101
        0.11414            0.00051            534.73450
        0.11616            0.00051            535.93347
        0.11818            0.00051            537.12732
        0.12020            0.00051            538.31549
        0.12222            0.00051            539.49756
        0.12424            0.00051            540.67279
        0.12626            0.00051            541.84094
        0.12828            0.00051            543.00165
        0.13030            0.00051            544.15466
        0.13232            0.00051            545.29950
        0.13434            0.00051            546.43604
        0.13636            0.00051            547.56396
        0.13838            0.00051            548.68317
        0.14040            0.00051            549.79340
        0.14242            0.00051            550.89417
        0.14444            0.00051            551.98578
        0.14646            0.00051            553.06787
        0.14848            0.00051            554.14032
        0.15050            0.00051            555.20294
        0.15253            0.00051            556.25574
        0.15455            0.00051            557.29858
        0.15657            0.00051            558.33142
        0.15859            0.00051            559.35419
        0.16061            0.00051            560.36694
        0.16263            0.00051            561.36945
        0.16465            0.00051            562.36169
        0.16667            0.00051            563.34381
        0.16869            0.00051            564.31561
        0.17071            0.00051            565.27722
        0.17273            0.00051            566.22852
        0.17475            0.00051            567.16949
        0.17677            0.00051            568.10022
        0.17879            0.00051            569.02075
        0.18081            0.00051            569.93109
        0.18283            0.00051            570.83124
        0.18485            0.00051            571.72119
        0.18687            0.00051            572.60083
        0.18889            0.00051            573.47040
        0.19091            0.00051            574.32977
        0.19293            0.00051            575.17908
        0.19495            0.00051            576.01837
        0.19697            0.00051            576.84760
        0.19899            0.00051            577.66675
        0.20000            0.00051            578.07111
        0.00000            0.00152            484.92279
        0.00101            0.00152            484.92279
        0.00303            0.00152            484.99918
        0.00505            0.00152            485.11700
        0.00707            0.00152            485.27707
        0.00909            0.00152            485.47922
        0.01111            0.00152            485.72330
        0.01313            0.00152            486.00891
        0.01515            0.00152            486.33578
        0.01717            0.00152            486.70346
        0.01919            0.00152            487.11118
        0.02121            0.00152            487.55865
        0.02323            0.00152            488.04510
        0.02525            0.00152            488.56992
        0.02727            0.00152            489.13226
        0.02929            0.00152            489.73141
        0.03131            0.00152            490.36624
        0.03333            0.00152            491.03610
        0.03535            0.00152            491.74011
        0.03737            0.00152            492.47736
        0.03939            0.00152            493.24673
        0.04141            0.00152            494.04733
        0.04343            0.00152            494.87808
        0.04545            0.00152            495.73798
        0.04747            0.00152            496.62579
        0.04949            0.00152            497.54053
        0.05152            0.00152            498.48102
        0.05354            0.00152            499.44611
        0.05556            0.00152            500.43445
        0.05758            0.00152            501.44513
        0.05960            0.00152            502.47668
        0.06162            0.00152            503.52808
        0.06364            0.00152            504.59833
        0.06566            0.00152            505.68570
        0.06768            0.00152            506.78928
        0.06970            0.00152            507.90808
        0.07172            0.00152            509.04089
        0.07374            0.00152            510.18661
        0.07576            0.00152            511.34415
        0.07778            0.00152            512.51233
        0.07980            0.00152            513.69019
        0.08182            0.00152            514.87671
        0.08384            0.00152            516.07068
        0.08586            0.00152            517.27130
        0.08788            0.00152            518.47748
        0.08990            0.00152            519.68848
        0.09192            0.00152            520.90308
        0.09394            0.00152            522.12067
        0.09596            0.00152            523.34027
        0.09798            0.00152            524.56110
        0.10000            0.00152            525.78223
        0.10202            0.00152            527.00311
        0.10404            0.00152            528.22302
        0.10606            0.00152            529.44116
        0.10808            0.00152            530.65686
        0.11010            0.00152            531.86963
        0.11212            0.00152            533.07886
        0.11414            0.00152            534.28375
        0.11616            0.00152            535.48407
        0.11818            0.00152            536.67932
        0.12020            0.00152            537.86877
        0.12222            0.00152            539.05225
        0.12424            0.00152            540.22882
        0.12626            0.00152            541.39838
        0.12828            0.00152            542.56049
        0.13030            0.00152            543.71472
        0.13232            0.00152            544.86096
        0.13434            0.00152            545.99884
        0.13636            0.00152            547.12811
        0.13838            0.00152            548.24860
        0.14040            0.00152            549.36017
        0.14242            0.00152            550.46234
        0.14444            0.00152            551.55518
        0.14646            0.00152            552.63855
        0.14848            0.00152            553.71228
        0.15050            0.00152            554.77625
        0.15253            0.00152            555.83032
        0.15455            0.00152            556.87439
        0.15657            0.00152            557.90851
        0.15859            0.00152            558.93256
        0.16061            0.00152            559.94653
        0.16263            0.00152            560.95020
        0.16465            0.00152            561.94373
        0.16667            0.00152            562.92694
        0.16869            0.00152            563.89996
        0.17071            0.00152            564.86279
        0.17273            0.00152            565.81531
        0.17475            0.00152            566.75745
        0.17677            0.00152            567.68933
        0.17879            0.00152            568.61090
        0.18081            0.00152            569.52234
        0.18283            0.00152            570.42365
        0.18485            0.00152            571.31464
        0.18687            0.00152            572.19543
        0.18889            0.00152            573.06604
        0.19091            0.00152            573.92651
        0.19293            0.00152            574.77692
        0.19495            0.00152            575.61719
        0.19697            0.00152            576.44745
        0.19899            0.00152            577.26758
        0.20000            0.00152            577.67242
        0.00000            0.00253            484.43286
        0.00101            0.00253            484.43286
        0.00303            0.00253            484.50943
        0.00505            0.00253            484.62747
        0.00707            0.00253            484.78769
        0.00909            0.00253            484.99008
        0.01111            0.00253            485.23441
        0.01313            0.00253            485.52023
        0.01515            0.00253            485.84741
        0.01717            0.00253            486.21536
        0.01919            0.00253            486.62347
        0.02121            0.00253            487.07132
        0.02323            0.00253            487.55823
        0.02525            0.00253            488.08347
        0.02727            0.00253            488.64627
        0.02929            0.00253            489.24591
        0.03131            0.00253            489.88138
        0.03333            0.00253            490.55179
        0.03535            0.00253            491.25644
        0.03737            0.00253            491.99426
        0.03939            0.00253            492.76437
        0.04141            0.00253            493.56570
        0.04343            0.00253            494.39716
        0.04545            0.00253            495.25778
        0.04747            0.00253            496.14645
        0.04949            0.00253            497.06204
        0.05152            0.00253            498.00333
        0.05354            0.00253            498.96930
        0.05556            0.00253            499.95862
        0.05758            0.00253            500.97018
        0.05960            0.00253            502.00278
        0.06162            0.00253            503.05511
        0.06364            0.00253            504.12628
        0.06566            0.00253            505.21472
        0.06768            0.00253            506.31937
        0.06970            0.00253            507.43921
        0.07172            0.00253            508.57309
        0.07374            0.00253            509.71991
        0.07576            0.00253            510.87854
        0.07778            0.00253            512.04791
        0.07980            0.00253            513.22699
        0.08182            0.00253            514.41467
        0.08384            0.00253            515.60986
        0.08586            0.00253            516.81171
        0.08788            0.00253            518.01904
        0.08990            0.00253            519.23132
        0.09192            0.00253            520.44720
        0.09394            0.00253            521.66602
        0.09596            0.00253            522.88690
        0.09798            0.00253            524.10901
        0.10000            0.00253            525.33142
        0.10202            0.00253            526.55359
        0.10404            0.00253            527.77478
        0.10606            0.00253            528.99426
        0.10808            0.00253            530.21130
        0.11010            0.00253            531.42529
        0.11212            0.00253            532.63586
        0.11414            0.00253            533.84222
        0.11616            0.00253            535.04382
        0.11818            0.00253            536.24036
        0.12020            0.00253            537.43121
        0.12222            0.00253            538.61584
        0.12424            0.00253            539.79388
        0.12626            0.00253            540.96472
        0.12828            0.00253            542.12817
        0.13030            0.00253            543.28375
        0.13232            0.00253            544.43127
        0.13434            0.00253            545.57043
        0.13636            0.00253            546.70111
        0.13838            0.00253            547.82288
        0.14040            0.00253            548.93567
        0.14242            0.00253            550.03912
        0.14444            0.00253            551.13324
        0.14646            0.00253            552.21796
        0.14848            0.00253            553.29291
        0.15050            0.00253            554.35809
        0.15253            0.00253            555.41339
        0.15455            0.00253            556.45874
        0.15657            0.00253            557.49414
        0.15859            0.00253            558.51935
        0.16061            0.00253            559.53448
        0.16263            0.00253            560.53937
        0.16465            0.00253            561.53412
        0.16667            0.00253            562.51849
        0.16869            0.00253            563.49274
        0.17071            0.00253            564.45667
        0.17273            0.00253            565.41034
        0.17475            0.00253            566.35358
        0.17677            0.00253            567.28662
        0.17879            0.00253            568.20935
        0.18081            0.00253            569.12195
        0.18283            0.00253            570.02417
        0.18485            0.00253            570.91632
        0.18687            0.00253            571.79816
        0.18889            0.00253            572.66986
        0.19091            0.00253            573.53137
        0.19293            0.00253            574.38275
        0.19495            0.00253            575.22406
        0.19697            0.00253            576.05524
        0.19899            0.00253            576.87640
        0.20000            0.00253            577.28174
        0.00000            0.00354            483.95337
        0.00101            0.00354            483.95337
        0.00303            0.00354            484.03003
        0.00505            0.00354            484.14819
        0.00707            0.00354            484.30856
        0.00909            0.00354            484.51111
        0.01111            0.00354            484.75568
        0.01313            0.00354            485.04178
        0.01515            0.00354            485.36917
        0.01717            0.00354            485.73746
        0.01919            0.00354            486.14594
        0.02121            0.00354            486.59415
        0.02323            0.00354            487.08145
        0.02525            0.00354            487.60712
        0.02727            0.00354            488.17044
        0.02929            0.00354            488.77057
        0.03131            0.00354            489.40662
        0.03333            0.00354            490.07758
        0.03535            0.00354            490.78275
        0.03737            0.00354            491.52124
        0.03939            0.00354            492.29196
        0.04141            0.00354            493.09402
        0.04343            0.00354            493.92621
        0.04545            0.00354            494.78763
        0.04747            0.00354            495.67703
        0.04949            0.00354            496.59344
        0.05152            0.00354            497.53558
        0.05354            0.00354            498.50232
        0.05556            0.00354            499.49252
        0.05758            0.00354            500.50507
        0.05960            0.00354            501.53857
        0.06162            0.00354            502.59198
        0.06364            0.00354            503.66409
        0.06566            0.00354            504.75348
        0.06768            0.00354            505.85916
        0.06970            0.00354            506.97998
        0.07172            0.00354            508.11493
        0.07374            0.00354            509.26282
        0.07576            0.00354            510.42258
        0.07778            0.00354            511.59305
        0.07980            0.00354            512.77325
        0.08182            0.00354            513.96210
        0.08384            0.00354            515.15845
        0.08586            0.00354            516.36145
        0.08788            0.00354            517.57001
        0.08990            0.00354            518.78345
        0.09192            0.00354            520.00061
        0.09394            0.00354            521.22064
        0.09596            0.00354            522.44269
        0.09798            0.00354            523.66602
        0.10000            0.00354            524.88983
        0.10202            0.00354            526.11322
        0.10404            0.00354            527.33569
        0.10606            0.00354            528.55646
        0.10808            0.00354            529.77478
        0.11010            0.00354            530.99011
        0.11212            0.00354            532.20190
        0.11414            0.00354            533.40961
        0.11616            0.00354            534.61243
        0.11818            0.00354            535.81024
        0.12020            0.00354            537.00238
        0.12222            0.00354            538.18842
        0.12424            0.00354            539.36780
        0.12626            0.00354            540.54004
        0.12828            0.00354            541.70477
        0.13030            0.00354            542.86163
        0.13232            0.00354            544.01044
        0.13434            0.00354            545.15082
        0.13636            0.00354            546.28271
        0.13838            0.00354            547.40582
        0.14040            0.00354            548.51984
        0.14242            0.00354            549.62451
        0.14444            0.00354            550.71997
        0.14646            0.00354            551.80585
        0.14848            0.00354            552.88208
        0.15050            0.00354            553.94843
        0.15253            0.00354            555.00500
        0.15455            0.00354            556.05151
        0.15657            0.00354            557.08807
        0.15859            0.00354            558.11450
        0.16061            0.00354            559.13086
        0.16263            0.00354            560.13696
        0.16465            0.00354            561.13287
        0.16667            0.00354            562.11841
        0.16869            0.00354            563.09369
        0.17071            0.00354            564.05878
        0.17273            0.00354            565.01355
        0.17475            0.00354            565.95795
        0.17677            0.00354            566.89209
        0.17879            0.00354            567.81598
        0.18081            0.00354            568.72961
        0.18283            0.00354            569.63293
        0.18485            0.00354            570.52606
        0.18687            0.00354            571.40894
        0.18889            0.00354            572.28168
        0.19091            0.00354            573.14423
        0.19293            0.00354            573.99658
        0.19495            0.00354            574.83881
        0.19697            0.00354            575.67108
        0.19899            0.00354            576.49316
        0.20000            0.00354            576.89899
        0.00000            0.00455            483.48410
        0.00101            0.00455            483.48410
        0.00303            0.00455            483.56088
        0.00505            0.00455            483.67926
        0.00707            0.00455            483.83972
        0.00909            0.00455            484.04245
        0.01111            0.00455            484.28723
        0.01313            0.00455            484.57361
        0.01515            0.00455            484.90128
        0.01717            0.00455            485.26984
        0.01919            0.00455            485.67865
        0.02121            0.00455            486.12717
        0.02323            0.00455            486.61496
        0.02525            0.00455            487.14102
        0.02727            0.00455            487.70490
        0.02929            0.00455            488.30560
        0.03131            0.00455            488.94211
        0.03333            0.00455            489.61353
        0.03535            0.00455            490.31924
        0.03737            0.00455            491.05832
        0.03939            0.00455            491.82974
        0.04141            0.00455            492.63245
        0.04343            0.00455            493.46536
        0.04545            0.00455            494.32745
        0.04747            0.00455            495.21762
        0.04949            0.00455            496.13480
        0.05152            0.00455            497.07776
        0.05354            0.00455            498.04535