  Title="2D heat conduction problem"
  Variables="x","y","T"
  ZONE I=101       J=101      F=POINT
        0.00000            0.00000            861.99518
        0.00101            0.00000            861.99518
        0.00303            0.00000            560.78265
        0.00505            0.00000            562.21252
        0.00707            0.00000            564.17145
        0.00909            0.00000            566.63959
        0.01111            0.00000            569.59070
        0.01313            0.00000            572.99353
        0.01515            0.00000            576.81372
        0.01717            0.00000            581.01324
        0.01919            0.00000            585.55127
        0.02121            0.00000            590.38580
        0.02323            0.00000            595.47437
        0.02525            0.00000            600.77527
        0.02727            0.00000            606.24701
        0.02929            0.00000            611.84985
        0.03131            0.00000            617.54639
        0.03333            0.00000            623.30341
        0.03535            0.00000            629.08887
        0.03737            0.00000            634.87427
        0.03939            0.00000            640.63507
        0.04141            0.00000            646.34973
        0.04343            0.00000            651.99969
        0.04545            0.00000            657.56989
        0.04747            0.00000            663.04730
        0.04949            0.00000            668.42242
        0.05152            0.00000            673.68726
        0.05354            0.00000            678.83630
        0.05556            0.00000            683.86548
        0.05758            0.00000            688.77258
        0.05960            0.00000            693.55695
        0.06162            0.00000            698.21741
        0.06364            0.00000            702.75739
        0.06566            0.00000            707.17761
        0.06768            0.00000            711.47919
        0.06970            0.00000            715.66394
        0.07172            0.00000            719.73547
        0.07374            0.00000            723.69611
        0.07576            0.00000            727.54950
        0.07778            0.00000            731.29852
        0.07980            0.00000            734.94617
        0.08182            0.00000            738.49573
        0.08384            0.00000            741.94989
        0.08586            0.00000            745.31207
        0.08788            0.00000            748.58514
        0.08990            0.00000            751.77167
        0.09192            0.00000            754.87524
        0.09394            0.00000            757.89783
        0.09596            0.00000            760.84204
        0.09798            0.00000            763.71094
        0.10000            0.00000            766.50641
        0.10202            0.00000            769.23114
        0.10404            0.00000            771.88763
        0.10606            0.00000            774.47760
        0.10808            0.00000            777.00378
        0.11010            0.00000            779.46790
        0.11212            0.00000            781.87207
        0.11414            0.00000            784.21790
        0.11616            0.00000            786.50800
        0.11818            0.00000            788.74347
        0.12020            0.00000            790.92670
        0.12222            0.00000            793.05878
        0.12424            0.00000            795.14276
        0.12626            0.00000            797.17975
        0.12828            0.00000            799.17151
        0.13030            0.00000            801.11920
        0.13232            0.00000            803.02448
        0.13434            0.00000            804.88831
        0.13636            0.00000            806.71246
        0.13838            0.00000            808.49817
        0.14040            0.00000            810.24664
        0.14242            0.00000            811.95923
        0.14444            0.00000            813.63708
        0.14646            0.00000            815.28119
        0.14848            0.00000            816.89294
        0.15050            0.00000            818.47333
        0.15253            0.00000            820.02295
        0.15455            0.00000            821.54327
        0.15657            0.00000            823.03516
        0.15859            0.00000            824.49957
        0.16061            0.00000            825.93695
        0.16263            0.00000            827.34882
        0.16465            0.00000            828.73535
        0.16667            0.00000            830.09760
        0.16869            0.00000            831.43652
        0.17071            0.00000            832.75269
        0.17273            0.00000            834.04608
        0.17475            0.00000            835.31848
        0.17677            0.00000            836.56989
        0.17879            0.00000            837.80127
        0.18081            0.00000            839.01276
        0.18283            0.00000            840.20526
        0.18485            0.00000            841.37958
        0.18687            0.00000            842.53528
        0.18889            0.00000            843.67389
        0.19091            0.00000            844.79504
        0.19293            0.00000            845.89960
        0.19495            0.00000            846.98785
        0.19697            0.00000            848.05969
        0.19899            0.00000            849.11609
        0.20000            0.00000            849.63611
        0.00000            0.00051            861.79895
        0.00101            0.00051            861.79895
        0.00303            0.00051            559.03131
        0.00505            0.00051            560.46857
        0.00707            0.00051            562.43762
        0.00909            0.00051            564.91852
        0.01111            0.00051            567.88483
        0.01313            0.00051            571.30524
        0.01515            0.00051            575.14514
        0.01717            0.00051            579.36639
        0.01919            0.00051            583.92780
        0.02121            0.00051            588.78729
        0.02323            0.00051            593.90216
        0.02525            0.00051            599.23041
        0.02727            0.00051            604.73041
        0.02929            0.00051            610.36218
        0.03131            0.00051            616.08813
        0.03333            0.00051            621.87488
        0.03535            0.00051            627.69019
        0.03737            0.00051            633.50543
        0.03939            0.00051            639.29602
        0.04141            0.00051            645.04016
        0.04343            0.00051            650.71930
        0.04545            0.00051            656.31824
        0.04747            0.00051            661.82391
        0.04949            0.00051            667.22681
        0.05152            0.00051            672.51880
        0.05354            0.00051            677.69446
        0.05556            0.00051            682.74957
        0.05758            0.00051            687.68201
        0.05960            0.00051            692.49109
        0.06162            0.00051            697.17560
        0.06364            0.00051            701.73901
        0.06566            0.00051            706.18207
        0.06768            0.00051            710.50586
        0.06970            0.00051            714.71222
        0.07172            0.00051            718.80475
        0.07374            0.00051            722.78589
        0.07576            0.00051            726.65912
        0.07778            0.00051            730.42755
        0.07980            0.00051            734.09399
        0.08182            0.00051            737.66187
        0.08384            0.00051            741.13391
        0.08586            0.00051            744.51343
        0.08788            0.00051            747.80341
        0.08990            0.00051            751.00635
        0.09192            0.00051            754.12598
        0.09394            0.00051            757.16412
        0.09596            0.00051            760.12360
        0.09798            0.00051            763.00726
        0.10000            0.00051            765.81720
        0.10202            0.00051            768.55597
        0.10404            0.00051            771.22620
        0.10606            0.00051            773.82953
        0.10808            0.00051            776.36877
        0.11010            0.00051            778.84558
        0.11212            0.00051            781.26215
        0.11414            0.00051            783.62012
        0.11616            0.00051            785.92206
        0.11818            0.00051            788.16907
        0.12020            0.00051            790.36353
        0.12222            0.00051            792.50665
        0.12424            0.00051            794.60138
        0.12626            0.00051            796.64886
        0.12828            0.00051            798.65094
        0.13030            0.00051            800.60864
        0.13232            0.00051            802.52380
        0.13434            0.00051            804.39722
        0.13636            0.00051            806.23083
        0.13838            0.00051            808.02576
        0.14040            0.00051            809.78320
        0.14242            0.00051            811.50464
        0.14444            0.00051            813.19116
        0.14646            0.00051            814.84375
        0.14848            0.00051            816.46387
        0.15050            0.00051            818.05237
        0.15253            0.00051            819.60999
        0.15455            0.00051            821.13818
        0.15657            0.00051            822.63776
        0.15859            0.00051            824.10974
        0.16061            0.00051            825.55457
        0.16263            0.00051            826.97369
        0.16465            0.00051            828.36737
        0.16667            0.00051            829.73669
        0.16869            0.00051            831.08252
        0.17071            0.00051            832.40546
        0.17273            0.00051            833.70557
        0.17475            0.00051            834.98450
        0.17677            0.00051            836.24237
        0.17879            0.00051            837.48010
        0.18081            0.00051            838.69788
        0.18283            0.00051            839.89655
        0.18485            0.00051            841.07690
        0.18687            0.00051            842.23859
        0.18889            0.00051            843.38306
        0.19091            0.00051            844.51001
        0.19293            0.00051            845.62024
        0.19495            0.00051            846.71411
        0.19697            0.00051            847.79150
        0.19899            0.00051            848.85333
        0.20000            0.00051            849.37604
        0.00000            0.00152            554.85309
        0.00101            0.00152            554.85309
        0.00303            0.00152            555.75140
        0.00505            0.00152            557.19897
        0.00707            0.00152            559.18207
        0.00909            0.00152            561.68073
        0.01111            0.00152            564.66833
        0.01313            0.00152            568.11365
        0.01515            0.00152            571.98181
        0.01717            0.00152            576.23444
        0.01919            0.00152            580.83038
        0.02121            0.00152            585.72742
        0.02323            0.00152            590.88239
        0.02525            0.00152            596.25293
        0.02727            0.00152            601.79755
        0.02929            0.00152            607.47589
        0.03131            0.00152            613.25012
        0.03333            0.00152            619.08630
        0.03535            0.00152            624.95239
        0.03737            0.00152            630.81927
        0.03939            0.00152            636.66187
        0.04141            0.00152            642.45856
        0.04343            0.00152            648.19049
        0.04545            0.00152            653.84192
        0.04747            0.00152            659.40009
        0.04949            0.00152            664.85492
        0.05152            0.00152            670.19836
        0.05354            0.00152            675.42474
        0.05556            0.00152            680.52985
        0.05758            0.00152            685.51129
        0.05960            0.00152            690.36841
        0.06162            0.00152            695.10071
        0.06364            0.00152            699.70966
        0.06566            0.00152            704.19794
        0.06768            0.00152            708.56549
        0.06970            0.00152            712.81488
        0.07172            0.00152            716.94922
        0.07374            0.00152            720.97125
        0.07576            0.00152            724.88422
        0.07778            0.00152            728.69128
        0.07980            0.00152            732.39545
        0.08182            0.00152            735.99988
        0.08384            0.00152            739.50769
        0.08586            0.00152            742.92194
        0.08788            0.00152            746.24573
        0.08990            0.00152            749.48175
        0.09192            0.00152            752.63330
        0.09394            0.00152            755.70270
        0.09596            0.00152            758.69275
        0.09798            0.00152            761.60596
        0.10000            0.00152            764.44495
        0.10202            0.00152            767.21198
        0.10404            0.00152            769.90967
        0.10606            0.00152            772.53979
        0.10808            0.00152            775.10510
        0.11010            0.00152            777.60736
        0.11212            0.00152            780.04877
        0.11414            0.00152            782.43103
        0.11616            0.00152            784.75659
        0.11818            0.00152            787.02679
        0.12020            0.00152            789.24371
        0.12222            0.00152            791.40906
        0.12424            0.00152            793.52551
        0.12626            0.00152            795.59406
        0.12828            0.00152            797.61676
        0.13030            0.00152            799.59454
        0.13232            0.00152            801.52924
        0.13434            0.00152            803.42206
        0.13636            0.00152            805.27454
        0.13838            0.00152            807.08777
        0.14040            0.00152            808.86334
        0.14242            0.00152            810.60236
        0.14444            0.00152            812.30615
        0.14646            0.00152            813.97571
        0.14848            0.00152            815.61255
        0.15050            0.00152            817.21716
        0.15253            0.00152            818.79095
        0.15455            0.00152            820.33484
        0.15657            0.00152            821.84973
        0.15859            0.00152            823.33679
        0.16061            0.00152            824.79645
        0.16263            0.00152            826.23004
        0.16465            0.00152            827.63812
        0.16667            0.00152            829.02142
        0.16869            0.00152            830.38092
        0.17071            0.00152            831.71729
        0.17273            0.00152            833.03088
        0.17475            0.00152            834.32275
        0.17677            0.00152            835.59363
        0.17879            0.00152            836.84393
        0.18081            0.00152            838.07422
        0.18283            0.00152            839.28528
        0.18485            0.00152            840.47748
        0.18687            0.00152            841.65106
        0.18889            0.00152            842.80707
        0.19091            0.00152            843.94556
        0.19293            0.00152            845.06714
        0.19495            0.00152            846.17206
        0.19697            0.00152            847.26062
        0.19899            0.00152            848.33313
        0.20000            0.00152            848.86115
        0.00000            0.00253            551.65521
        0.00101            0.00253            551.65521
        0.00303            0.00253            552.55933
        0.00505            0.00253            554.01636
        0.00707            0.00253            556.01233
        0.00909            0.00253            558.52722
        0.01111            0.00253            561.53485
        0.01313            0.00253            565.00342
        0.01515            0.00253            568.89832
        0.01717            0.00253            573.18054
        0.01919            0.00253            577.80920
        0.02121            0.00253            582.74182
        0.02323            0.00253            587.93494
        0.02525            0.00253            593.34595
        0.02727            0.00253            598.93292
        0.02929            0.00253            604.65570
        0.03131            0.00253            610.47638
        0.03333            0.00253            616.36011
        0.03535            0.00253            622.27466
        0.03737            0.00253            628.19135
        0.03939            0.00253            634.08405
        0.04141            0.00253            639.93152
        0.04343            0.00253            645.71429
        0.04545            0.00253            651.41656
        0.04747            0.00253            657.02545
        0.04949            0.00253            662.53064
        0.05152            0.00253            667.92401
        0.05354            0.00253            673.19971
        0.05556            0.00253            678.35345
        0.05758            0.00253            683.38257
        0.05960            0.00253            688.28644
        0.06162            0.00253            693.06464
        0.06364            0.00253            697.71869
        0.06566            0.00253            702.25073
        0.06768            0.00253            706.66132
        0.06970            0.00253            710.95258
        0.07172            0.00253            715.12787
        0.07374            0.00253            719.18982
        0.07576            0.00253            723.14166
        0.07778            0.00253            726.98645
        0.07980            0.00253            730.72748
        0.08182            0.00253            734.36786
        0.08384            0.00253            737.91064
        0.08586            0.00253            741.35889
        0.08788            0.00253            744.71588
        0.08990            0.00253            747.98425
        0.09192            0.00253            751.16724
        0.09394            0.00253            754.26727
        0.09596            0.00253            757.28729
        0.09798            0.00253            760.22961
        0.10000            0.00253            763.09698
        0.10202            0.00253            765.89172
        0.10404            0.00253            768.61633
        0.10606            0.00253            771.27271
        0.10808            0.00253            773.86371
        0.11010            0.00253            776.39093
        0.11212            0.00253            778.85657
        0.11414            0.00253            781.26276
        0.11616            0.00253            783.61169
        0.11818            0.00253            785.90460
        0.12020            0.00253            788.14362
        0.12222            0.00253            790.33063
        0.12424            0.00253            792.46838
        0.12626            0.00253            794.55780
        0.12828            0.00253            796.60071
        0.13030            0.00253            798.59833
        0.13232            0.00253            800.55225
        0.13434            0.00253            802.46399
        0.13636            0.00253            804.33490
        0.13838            0.00253            806.16626
        0.14040            0.00253            807.95972
        0.14242            0.00253            809.71594
        0.14444            0.00253            811.43671
        0.14646            0.00253            813.12286
        0.14848            0.00253            814.77594
        0.15050            0.00253            816.39648
        0.15253            0.00253            817.98602
        0.15455            0.00253            819.54523
        0.15657            0.00253            821.07538
        0.15859            0.00253            822.57721
        0.16061            0.00253            824.05145
        0.16263            0.00253            825.49933
        0.16465            0.00253            826.92145
        0.16667            0.00253            828.31854
        0.16869            0.00253            829.69147
        0.17071            0.00253            831.04102
        0.17273            0.00253            832.36786
        0.17475            0.00253            833.67261
        0.17677            0.00253            834.95605
        0.17879            0.00253            836.21875
        0.18081            0.00253            837.46130
        0.18283            0.00253            838.68445
        0.18485            0.00253            839.88837
        0.18687            0.00253            841.07367
        0.18889            0.00253            842.24121
        0.19091            0.00253            843.39105
        0.19293            0.00253            844.52356
        0.19495            0.00253            845.63940
        0.19697            0.00253            846.73883
        0.19899            0.00253            847.82214
        0.20000            0.00253            848.35535
        0.00000            0.00354            548.54657
        0.00101            0.00354            548.54657
        0.00303            0.00354            549.45557
        0.00505            0.00354            550.92096
        0.00707            0.00354            552.92883
        0.00909            0.00354            555.45874
        0.01111            0.00354            558.48474
        0.01313            0.00354            561.97510
        0.01515            0.00354            565.89496
        0.01717            0.00354            570.20514
        0.01919            0.00354            574.86475
        0.02121            0.00354            579.83099
        0.02323            0.00354            585.06030
        0.02525            0.00354            590.50964
        0.02727            0.00354            596.13721
        0.02929            0.00354            601.90247
        0.03131            0.00354            607.76740
        0.03333            0.00354            613.69647
        0.03535            0.00354            619.65765
        0.03737            0.00354            625.62183
        0.03939            0.00354            631.56311
        0.04141            0.00354            637.45923
        0.04343            0.00354            643.29108
        0.04545            0.00354            649.04248
        0.04747            0.00354            654.70050
        0.04949            0.00354            660.25433
        0.05152            0.00354            665.69604
        0.05354            0.00354            671.01965
        0.05556            0.00354            676.22040
        0.05758            0.00354            681.29596
        0.05960            0.00354            686.24518
        0.06162            0.00354            691.06805
        0.06364            0.00354            695.76611
        0.06566            0.00354            700.34113
        0.06768            0.00354            704.79346
        0.06970            0.00354            709.12567
        0.07172            0.00354            713.34082
        0.07374            0.00354            717.44177
        0.07576            0.00354            721.43146
        0.07778            0.00354            725.31335
        0.07980            0.00354            729.09045
        0.08182            0.00354            732.76599
        0.08384            0.00354            736.34290
        0.08586            0.00354            739.82458
        0.08788            0.00354            743.21399
        0.08990            0.00354            746.51416
        0.09192            0.00354            749.72803
        0.09394            0.00354            752.85815
        0.09596            0.00354            755.90741
        0.09798            0.00354            758.87823
        0.10000            0.00354            761.77350
        0.10202            0.00354            764.59521
        0.10404            0.00354            767.34631
        0.10606            0.00354            770.02844
        0.10808            0.00354            772.64459
        0.11010            0.00354            775.19629
        0.11212            0.00354            777.68591
        0.11414            0.00354            780.11554
        0.11616            0.00354            782.48718
        0.11818            0.00354            784.80249
        0.12020            0.00354            787.06342
        0.12222            0.00354            789.27161
        0.12424            0.00354            791.43036
        0.12626            0.00354            793.54022
        0.12828            0.00354            795.60284
        0.13030            0.00354            797.61987
        0.13232            0.00354            799.59265
        0.13434            0.00354            801.52283
        0.13636            0.00354            803.41205
        0.13838            0.00354            805.26123
        0.14040            0.00354            807.07202
        0.14242            0.00354            808.84521
        0.14444            0.00354            810.58276
        0.14646            0.00354            812.28528
        0.14848            0.00354            813.95422
        0.15050            0.00354            815.59058
        0.15253            0.00354            817.19543
        0.15455            0.00354            818.76984
        0.15657            0.00354            820.31476
        0.15859            0.00354            821.83099
        0.16061            0.00354            823.31952
        0.16263            0.00354            824.78131
        0.16465            0.00354            826.21747
        0.16667            0.00354            827.62811
        0.16869            0.00354            829.01410
        0.17071            0.00354            830.37677
        0.17273            0.00354            831.71649
        0.17475            0.00354            833.03387
        0.17677            0.00354            834.32977
        0.17879            0.00354            835.60461
        0.18081            0.00354            836.85931
        0.18283            0.00354            838.09412
        0.18485            0.00354            839.30963
        0.18687            0.00354            840.50641
        0.18889            0.00354            841.68518
        0.19091            0.00354            842.84601
        0.19293            0.00354            843.98956
        0.19495            0.00354            845.11615
        0.19697            0.00354            846.22626
        0.19899            0.00354            847.32013
        0.20000            0.00354            847.85852
        0.00000            0.00455            545.52753
        0.00101            0.00455            545.52753
        0.00303            0.00455            546.44067
        0.00505            0.00455            547.91339
        0.00707            0.00455            549.93182
        0.00909            0.00455            552.47540
        0.01111            0.00455            555.51843
        0.01313            0.00455            559.02917
        0.01515            0.00455            562.97229
        0.01717            0.00455            567.30878
        0.01919            0.00455            571.99744
        0.02121            0.00455            576.99524
        0.02323            0.00455            582.25873
        0.02525            0.00455            587.74457
        0.02727            0.00455            593.41083
        0.02929            0.00455            599.21661
        0.03131            0.00455            605.12378
        0.03333            0.00455            611.09601
        0.03535            0.00455            617.10181
        0.03737            0.00455            623.11151
        0.03939            0.00455            629.09918
        0.04141            0.00455            635.04242
        0.04343            0.00455            640.92145
        0.04545            0.00455            646.72028
        0.04747            0.00455            652.42554
        0.04949            0.00455            658.02649
        0.05152            0.00455            663.51495
        0.05354            0.00455            668.88477