  Title="2D heat conduction problem"
  Variables="x","y","T"
  ZONE I=101       J=101      F=POINT
        0.00000            0.00000            402.31250
        0.00101            0.00000            420.25815
        0.00303            0.00000            439.21100
        0.00505            0.00000            454.62268
        0.00707            0.00000            467.88977
        0.00909            0.00000            479.65097
        0.01111            0.00000            490.26523
        0.01313            0.00000            499.96066
        0.01515            0.00000            508.89502
        0.01717            0.00000            517.18323
        0.01919            0.00000            524.91290
        0.02121            0.00000            532.15253
        0.02323            0.00000            538.95740
        0.02525            0.00000            545.37268
        0.02727            0.00000            551.43634
        0.02929            0.00000            557.18042
        0.03131            0.00000            562.63232
        0.03333            0.00000            567.81641
        0.03535            0.00000            572.75299
        0.03737            0.00000            577.46045
        0.03939            0.00000            581.95520
        0.04141            0.00000            586.25195
        0.04343            0.00000            590.36407
        0.04545            0.00000            594.30365
        0.04747            0.00000            598.08160
        0.04949            0.00000            601.70782
        0.05152            0.00000            605.19189
        0.05354            0.00000            608.54224
        0.05556            0.00000            611.76691
        0.05758            0.00000            614.87354
        0.05960            0.00000            617.86920
        0.06162            0.00000            620.75995
        0.06364            0.00000            623.55292
        0.06566            0.00000            626.25342
        0.06768            0.00000            628.86719
        0.06970            0.00000            631.39929
        0.07172            0.00000            633.85498
        0.07374            0.00000            636.23901
        0.07576            0.00000            638.55621
        0.07778            0.00000            640.81073
        0.07980            0.00000            643.00684
        0.08182            0.00000            645.14856
        0.08384            0.00000            647.23993
        0.08586            0.00000            649.28461
        0.08788            0.00000            651.28625
        0.08990            0.00000            653.24841
        0.09192            0.00000            655.17438
        0.09394            0.00000            657.06750
        0.09596            0.00000            658.93066
        0.09798            0.00000            660.76697
        0.10000            0.00000            662.57935
        0.10202            0.00000            664.37085
        0.10404            0.00000            666.14404
        0.10606            0.00000            667.90137
        0.10808            0.00000            669.64545
        0.11010            0.00000            671.37872
        0.11212            0.00000            673.10352
        0.11414            0.00000            674.82227
        0.11616            0.00000            676.53662
        0.11818            0.00000            678.24915
        0.12020            0.00000            679.96173
        0.12222            0.00000            681.67621
        0.12424            0.00000            683.39441
        0.12626            0.00000            685.11847
        0.12828            0.00000            686.85010
        0.13030            0.00000            688.59088
        0.13232            0.00000            690.34222
        0.13434            0.00000            692.10577
        0.13636            0.00000            693.88287
        0.13838            0.00000            695.67474
        0.14040            0.00000            697.48303
        0.14242            0.00000            699.30853
        0.14444            0.00000            701.15253
        0.14646            0.00000            703.01611
        0.14848            0.00000            704.90027
        0.15050            0.00000            706.80615
        0.15253            0.00000            708.73425
        0.15455            0.00000            710.68573
        0.15657            0.00000            712.66125
        0.15859            0.00000            714.66144
        0.16061            0.00000            716.68719
        0.16263            0.00000            718.73853
        0.16465            0.00000            720.81659
        0.16667            0.00000            722.92133
        0.16869            0.00000            725.05341
        0.17071            0.00000            727.21326
        0.17273            0.00000            729.40118
        0.17475            0.00000            731.61682
        0.17677            0.00000            733.86102
        0.17879            0.00000            736.13361
        0.18081            0.00000            738.43475
        0.18283            0.00000            740.76428
        0.18485            0.00000            743.12231
        0.18687            0.00000            745.50879
        0.18889            0.00000            747.92340
        0.19091            0.00000            750.36609
        0.19293            0.00000            752.83673
        0.19495            0.00000            755.33441
        0.19697            0.00000            757.85852
        0.19899            0.00000            760.40814
        0.20000            0.00000            761.69348
        0.00000            0.00051            400.00000
        0.00101            0.00051            418.02902
        0.00303            0.00051            437.06995
        0.00505            0.00051            452.55322
        0.00707            0.00051            465.88196
        0.00909            0.00051            477.69781
        0.01111            0.00051            488.36139
        0.01313            0.00051            498.10187
        0.01515            0.00051            507.07773
        0.01717            0.00051            515.40448
        0.01919            0.00051            523.17004
        0.02121            0.00051            530.44330
        0.02323            0.00051            537.27979
        0.02525            0.00051            543.72491
        0.02727            0.00051            549.81671
        0.02929            0.00051            555.58746
        0.03131            0.00051            561.06470
        0.03333            0.00051            566.27289
        0.03535            0.00051            571.23242
        0.03737            0.00051            575.96173
        0.03939            0.00051            580.47736
        0.04141            0.00051            584.79413
        0.04343            0.00051            588.92535
        0.04545            0.00051            592.88324
        0.04747            0.00051            596.67871
        0.04949            0.00051            600.32178
        0.05152            0.00051            603.82202
        0.05354            0.00051            607.18793
        0.05556            0.00051            610.42761
        0.05758            0.00051            613.54865
        0.05960            0.00051            616.55823
        0.06162            0.00051            619.46246
        0.06364            0.00051            622.26837
        0.06566            0.00051            624.98145
        0.06768            0.00051            627.60736
        0.06970            0.00051            630.15125
        0.07172            0.00051            632.61829
        0.07374            0.00051            635.01343
        0.07576            0.00051            637.34137
        0.07778            0.00051            639.60638
        0.07980            0.00051            641.81268
        0.08182            0.00051            643.96436
        0.08384            0.00051            646.06543
        0.08586            0.00051            648.11963
        0.08788            0.00051            650.13055
        0.08990            0.00051            652.10187
        0.09192            0.00051            654.03674
        0.09394            0.00051            655.93872
        0.09596            0.00051            657.81049
        0.09798            0.00051            659.65533
        0.10000            0.00051            661.47614
        0.10202            0.00051            663.27600
        0.10404            0.00051            665.05743
        0.10606            0.00051            666.82288
        0.10808            0.00051            668.57507
        0.11010            0.00051            670.31641
        0.11212            0.00051            672.04919
        0.11414            0.00051            673.77594
        0.11616            0.00051            675.49829
        0.11818            0.00051            677.21875
        0.12020            0.00051            678.93927
        0.12222            0.00051            680.66174
        0.12424            0.00051            682.38794
        0.12626            0.00051            684.12000
        0.12828            0.00051            685.85968
        0.13030            0.00051            687.60852
        0.13232            0.00051            689.36804
        0.13434            0.00051            691.13977
        0.13636            0.00051            692.92511
        0.13838            0.00051            694.72534
        0.14040            0.00051            696.54199
        0.14242            0.00051            698.37598
        0.14444            0.00051            700.22858
        0.14646            0.00051            702.10077
        0.14848            0.00051            703.99371
        0.15050            0.00051            705.90845
        0.15253            0.00051            707.84552
        0.15455            0.00051            709.80603
        0.15657            0.00051            711.79077
        0.15859            0.00051            713.80023
        0.16061            0.00051            715.83539
        0.16263            0.00051            717.89624
        0.16465            0.00051            719.98401
        0.16667            0.00051            722.09851
        0.16869            0.00051            724.24048
        0.17071            0.00051            726.41040
        0.17273            0.00051            728.60846
        0.17475            0.00051            730.83441
        0.17677            0.00051            733.08905
        0.17879            0.00051            735.37219
        0.18081            0.00051            737.68402
        0.18283            0.00051            740.02435
        0.18485            0.00051            742.39337
        0.18687            0.00051            744.79089
        0.18889            0.00051            747.21674
        0.19091            0.00051            749.67078
        0.19293            0.00051            752.15289
        0.19495            0.00051            754.66217
        0.19697            0.00051            757.19800
        0.19899            0.00051            759.75952
        0.20000            0.00051            761.05078
        0.00000            0.00152            400.00000
        0.00101            0.00152            413.57126
        0.00303            0.00152            432.78912
        0.00505            0.00152            448.41641
        0.00707            0.00152            461.86926
        0.00909            0.00152            473.79529
        0.01111            0.00152            484.55823
        0.01313            0.00152            494.38962
        0.01515            0.00152            503.44934
        0.01717            0.00152            511.85397
        0.01919            0.00152            519.69214
        0.02121            0.00152            527.03351
        0.02323            0.00152            533.93402
        0.02525            0.00152            540.43958
        0.02727            0.00152            546.58850
        0.02929            0.00152            552.41339
        0.03131            0.00152            557.94208
        0.03333            0.00152            563.19916
        0.03535            0.00152            568.20538
        0.03737            0.00152            572.97919
        0.03939            0.00152            577.53735
        0.04141            0.00152            581.89478
        0.04343            0.00152            586.06494
        0.04545            0.00152            590.06006
        0.04747            0.00152            593.89142
        0.04949            0.00152            597.56891
        0.05152            0.00152            601.10217
        0.05354            0.00152            604.49994
        0.05556            0.00152            607.77020
        0.05758            0.00152            610.92084
        0.05960            0.00152            613.95886
        0.06162            0.00152            616.89062
        0.06364            0.00152            619.72308
        0.06566            0.00152            622.46185
        0.06768            0.00152            625.11261
        0.06970            0.00152            627.68066
        0.07172            0.00152            630.17114
        0.07374            0.00152            632.58899
        0.07576            0.00152            634.93896
        0.07778            0.00152            637.22546
        0.07980            0.00152            639.45270
        0.08182            0.00152            641.62476
        0.08384            0.00152            643.74579
        0.08586            0.00152            645.81940
        0.08788            0.00152            647.84943
        0.08990            0.00152            649.83942
        0.09192            0.00152            651.79260
        0.09394            0.00152            653.71259
        0.09596            0.00152            655.60205
        0.09798            0.00152            657.46429
        0.10000            0.00152            659.30237
        0.10202            0.00152            661.11926
        0.10404            0.00152            662.91742
        0.10606            0.00152            664.69952
        0.10808            0.00152            666.46826
        0.11010            0.00152            668.22601
        0.11212            0.00152            669.97504
        0.11414            0.00152            671.71796
        0.11616            0.00152            673.45648
        0.11818            0.00152            675.19305
        0.12020            0.00152            676.92975
        0.12222            0.00152            678.66827
        0.12424            0.00152            680.41058
        0.12626            0.00152            682.15881
        0.12828            0.00152            683.91473
        0.13030            0.00152            685.67981
        0.13232            0.00152            687.45569
        0.13434            0.00152            689.24384
        0.13636            0.00152            691.04565
        0.13838            0.00152            692.86261
        0.14040            0.00152            694.69604
        0.14242            0.00152            696.54694
        0.14444            0.00152            698.41669
        0.14646            0.00152            700.30615
        0.14848            0.00152            702.21661
        0.15050            0.00152            704.14893
        0.15253            0.00152            706.10382
        0.15455            0.00152            708.08234
        0.15657            0.00152            710.08527
        0.15859            0.00152            712.11322
        0.16061            0.00152            714.16693
        0.16263            0.00152            716.24670
        0.16465            0.00152            718.35345
        0.16667            0.00152            720.48730
        0.16869            0.00152            722.64886
        0.17071            0.00152            724.83862
        0.17273            0.00152            727.05664
        0.17475            0.00152            729.30292
        0.17677            0.00152            731.57806
        0.17879            0.00152            733.88202
        0.18081            0.00152            736.21484
        0.18283            0.00152            738.57648
        0.18485            0.00152            740.96704
        0.18687            0.00152            743.38635
        0.18889            0.00152            745.83417
        0.19091            0.00152            748.31049
        0.19293            0.00152            750.81506
        0.19495            0.00152            753.34698
        0.19697            0.00152            755.90564
        0.19899            0.00152            758.49023
        0.20000            0.00152            759.79315
        0.00000            0.00253            400.00000
        0.00101            0.00253            411.09512
        0.00303            0.00253            429.40726
        0.00505            0.00253            444.82541
        0.00707            0.00253            458.24133
        0.00909            0.00253            470.18738
        0.01111            0.00253            480.99274
        0.01313            0.00253            490.87595
        0.01515            0.00253            499.99121
        0.01717            0.00253            508.45230
        0.01919            0.00253            516.34650
        0.02121            0.00253            523.74280
        0.02323            0.00253            530.69672
        0.02525            0.00253            537.25391
        0.02727            0.00253            543.45270
        0.02929            0.00253            549.32550
        0.03131            0.00253            554.90039
        0.03333            0.00253            560.20203
        0.03535            0.00253            565.25098
        0.03737            0.00253            570.06580
        0.03939            0.00253            574.66364
        0.04141            0.00253            579.05908
        0.04343            0.00253            583.26593
        0.04545            0.00253            587.29633
        0.04747            0.00253            591.16168
        0.04949            0.00253            594.87201
        0.05152            0.00253            598.43683
        0.05354            0.00253            601.86505
        0.05556            0.00253            605.16479
        0.05758            0.00253            608.34393
        0.05960            0.00253            611.40936
        0.06162            0.00253            614.36780
        0.06364            0.00253            617.22595
        0.06566            0.00253            619.98969
        0.06768            0.00253            622.66449
        0.06970            0.00253            625.25598
        0.07172            0.00253            627.76923
        0.07374            0.00253            630.20923
        0.07576            0.00253            632.58069
        0.07778            0.00253            634.88818
        0.07980            0.00253            637.13586
        0.08182            0.00253            639.32782
        0.08384            0.00253            641.46832
        0.08586            0.00253            643.56104
        0.08788            0.00253            645.60974
        0.08990            0.00253            647.61792
        0.09192            0.00253            649.58917
        0.09394            0.00253            651.52667
        0.09596            0.00253            653.43353
        0.09798            0.00253            655.31287
        0.10000            0.00253            657.16791
        0.10202            0.00253            659.00134
        0.10404            0.00253            660.81598
        0.10606            0.00253            662.61450
        0.10808            0.00253            664.39941
        0.11010            0.00253            666.17316
        0.11212            0.00253            667.93829
        0.11414            0.00253            669.69702
        0.11616            0.00253            671.45142
        0.11818            0.00253            673.20380
        0.12020            0.00253            674.95624
        0.12222            0.00253            676.71063
        0.12424            0.00253            678.46875
        0.12626            0.00253            680.23297
        0.12828            0.00253            682.00464
        0.13030            0.00253            683.78577
        0.13232            0.00253            685.57770
        0.13434            0.00253            687.38196
        0.13636            0.00253            689.20013
        0.13838            0.00253            691.03345
        0.14040            0.00253            692.88330
        0.14242            0.00253            694.75085
        0.14444            0.00253            696.63739
        0.14646            0.00253            698.54388
        0.14848            0.00253            700.47144
        0.15050            0.00253            702.42102
        0.15253            0.00253            704.39343
        0.15455            0.00253            706.38959
        0.15657            0.00253            708.41040
        0.15859            0.00253            710.45648
        0.16061            0.00253            712.52844
        0.16263            0.00253            714.62677
        0.16465            0.00253            716.75226
        0.16667            0.00253            718.90515
        0.16869            0.00253            721.08594
        0.17071            0.00253            723.29504
        0.17273            0.00253            725.53265
        0.17475            0.00253            727.79901
        0.17677            0.00253            730.09424
        0.17879            0.00253            732.41864
        0.18081            0.00253            734.77209
        0.18283            0.00253            737.15466
        0.18485            0.00253            739.56635
        0.18687            0.00253            742.00696
        0.18889            0.00253            744.47644
        0.19091            0.00253            746.97455
        0.19293            0.00253            749.50104
        0.19495            0.00253            752.05536
        0.19697            0.00253            754.63660
        0.19899            0.00253            757.24390
        0.20000            0.00253            758.55829
        0.00000            0.00354            400.00000
        0.00101            0.00354            409.58902
        0.00303            0.00354            426.75024
        0.00505            0.00354            441.73715
        0.00707            0.00354            454.98398
        0.00909            0.00354            466.86856
        0.01111            0.00354            477.66251
        0.01313            0.00354            487.55994
        0.01515            0.00354            496.70309
        0.01717            0.00354            505.19971
        0.01919            0.00354            513.13367
        0.02121            0.00354            520.57178
        0.02323            0.00354            527.56842
        0.02525            0.00354            534.16858
        0.02727            0.00354            540.40991
        0.02929            0.00354            546.32458
        0.03131            0.00354            551.94049
        0.03333            0.00354            557.28198
        0.03535            0.00354            562.36981
        0.03737            0.00354            567.22241
        0.03939            0.00354            571.85675
        0.04141            0.00354            576.28772
        0.04343            0.00354            580.52893
        0.04545            0.00354            584.59271
        0.04747            0.00354            588.49017
        0.04949            0.00354            592.23151
        0.05152            0.00354            595.82642
        0.05354            0.00354            599.28387
        0.05556            0.00354            602.61188
        0.05758            0.00354            605.81830
        0.05960            0.00354            608.91028
        0.06162            0.00354            611.89429
        0.06364            0.00354            614.77747
        0.06566            0.00354            617.56525
        0.06768            0.00354            620.26361
        0.06970            0.00354            622.87775
        0.07172            0.00354            625.41315
        0.07374            0.00354            627.87469
        0.07576            0.00354            630.26715
        0.07778            0.00354            632.59497
        0.07980            0.00354            634.86261
        0.08182            0.00354            637.07416
        0.08384            0.00354            639.23370
        0.08586            0.00354            641.34503
        0.08788            0.00354            643.41199
        0.08990            0.00354            645.43799
        0.09192            0.00354            647.42676
        0.09394            0.00354            649.38147
        0.09596            0.00354            651.30530
        0.09798            0.00354            653.20148
        0.10000            0.00354            655.07306
        0.10202            0.00354            656.92279
        0.10404            0.00354            658.75360
        0.10606            0.00354            660.56812
        0.10808            0.00354            662.36884
        0.11010            0.00354            664.15839
        0.11212            0.00354            665.93921
        0.11414            0.00354            667.71356
        0.11616            0.00354            669.48346
        0.11818            0.00354            671.25146
        0.12020            0.00354            673.01935
        0.12222            0.00354            674.78925
        0.12424            0.00354            676.56293
        0.12626            0.00354            678.34271
        0.12828            0.00354            680.13013
        0.13030            0.00354            681.92694
        0.13232            0.00354            683.73456
        0.13434            0.00354            685.55469
        0.13636            0.00354            687.38885
        0.13838            0.00354            689.23816
        0.14040            0.00354            691.10419
        0.14242            0.00354            692.98816
        0.14444            0.00354            694.89111
        0.14646            0.00354            696.81427
        0.14848            0.00354            698.75867
        0.15050            0.00354            700.72522
        0.15253            0.00354            702.71478
        0.15455            0.00354            704.72827
        0.15657            0.00354            706.76660
        0.15859            0.00354            708.83038
        0.16061            0.00354            710.92035
        0.16263            0.00354            713.03680
        0.16465            0.00354            715.18079
        0.16667            0.00354            717.35236
        0.16869            0.00354            719.55194
        0.17071            0.00354            721.78003
        0.17273            0.00354            724.03699
        0.17475            0.00354            726.32288
        0.17677            0.00354            728.63794
        0.17879            0.00354            730.98236
        0.18081            0.00354            733.35608
        0.18283            0.00354            735.75916
        0.18485            0.00354            738.19165
        0.18687            0.00354            740.65326
        0.18889            0.00354            743.14386
        0.19091            0.00354            745.66345
        0.19293            0.00354            748.21161
        0.19495            0.00354            750.78778
        0.19697            0.00354            753.39111
        0.19899            0.00354            756.02063
        0.20000            0.00354            757.34631
        0.00000            0.00455            400.00000
        0.00101            0.00455            408.58759
        0.00303            0.00455            424.63818
        0.00505            0.00455            439.08615
        0.00707            0.00455            452.07019
        0.00909            0.00455            463.82629
        0.01111            0.00455            474.56128
        0.01313            0.00455            484.43805
        0.01515            0.00455            493.58307
        0.01717            0.00455            502.09512
        0.01919            0.00455            510.05295
        0.02121            0.00455            517.52020
        0.02323            0.00455            524.54932
        0.02525            0.00455            531.18372
        0.02727            0.00455            537.46033
        0.02929            0.00455            543.41077
        0.03131            0.00455            549.06250
        0.03333            0.00455            554.43945
        0.03535            0.00455            559.56226
        0.03737            0.00455            564.44928
        0.03939            0.00455            569.11725
        0.04141            0.00455            573.58105
        0.04343            0.00455            577.85437
        0.04545            0.00455            581.94928
        0.04747            0.00455            585.87708
        0.04949            0.00455            589.64789
        0.05152            0.00455            593.27142
        0.05354            0.00455            596.75677