 title="contour"
 variables="x","y"
 zone i=          26  j=           8  f=point
  0.0000000E+00 -7.4999998E-03
  6.6666497E-04 -7.4999998E-03
  1.3333351E-03 -7.4999998E-03
  2.0000001E-03 -7.4999998E-03
  2.9812397E-03 -7.1428549E-03
  3.9624847E-03 -6.7857150E-03
  4.9437247E-03 -6.4285700E-03
  5.9249699E-03 -6.0714297E-03
  6.9062100E-03 -5.7142847E-03
  7.8874500E-03 -5.3571449E-03
  8.8686943E-03 -4.9999999E-03
  1.0172185E-02 -5.3492701E-03
  1.1475675E-02 -5.6985402E-03
  1.2779165E-02 -6.0478048E-03
  1.4082654E-02 -6.3970750E-03
  1.5386145E-02 -6.7463452E-03
  1.6689636E-02 -7.0956149E-03
  1.7993124E-02 -7.4448846E-03
  1.9296614E-02 -7.7941548E-03
  2.0600105E-02 -8.1434203E-03
  2.1903595E-02 -8.4926896E-03
  2.3207085E-02 -8.8419598E-03
  2.4510574E-02 -9.1912299E-03
  2.5814066E-02 -9.5405001E-03
  2.7117554E-02 -9.8897703E-03
  2.8421044E-02 -1.0239035E-02
  0.0000000E+00 -5.3571449E-03
  6.6666497E-04 -5.3571449E-03
  1.3333351E-03 -5.3571449E-03
  2.0000001E-03 -5.3571449E-03
  2.9812397E-03 -5.1020402E-03
  3.9624847E-03 -4.8469398E-03
  4.9437247E-03 -4.5918352E-03
  5.9249699E-03 -4.3367348E-03
  6.9062100E-03 -4.0816348E-03
  7.8874500E-03 -3.8265300E-03
  8.8686943E-03 -3.5714300E-03
  1.0057280E-02 -3.8204249E-03
  1.1241535E-02 -4.0685097E-03
  1.2421845E-02 -4.3157749E-03
  1.3598550E-02 -4.5622797E-03
  1.4771939E-02 -4.8080897E-03
  1.5942289E-02 -5.0532650E-03
  1.7109839E-02 -5.2978550E-03
  1.8274805E-02 -5.5419048E-03
  1.9437380E-02 -5.7854494E-03
  2.0597734E-02 -6.0285297E-03
  2.1756032E-02 -6.2711798E-03
  2.2912413E-02 -6.5134298E-03
  2.4067014E-02 -6.7553050E-03
  2.5219945E-02 -6.9968300E-03
  2.6371319E-02 -7.2380295E-03
  0.0000000E+00 -3.2142850E-03
  6.6666497E-04 -3.2142850E-03
  1.3333351E-03 -3.2142850E-03
  2.0000001E-03 -3.2142850E-03
  2.9812397E-03 -3.0612249E-03
  3.9624847E-03 -2.9081649E-03
  4.9437247E-03 -2.7551001E-03
  5.9249699E-03 -2.6020398E-03
  6.9062100E-03 -2.4489800E-03
  7.8874500E-03 -2.2959199E-03
  8.8686943E-03 -2.1428550E-03
  9.9423993E-03 -2.2919099E-03
  1.1007586E-02 -2.4397750E-03
  1.2065114E-02 -2.5865799E-03
  1.3115744E-02 -2.7324250E-03
  1.4160135E-02 -2.8774100E-03
  1.5198859E-02 -3.0216000E-03
  1.6232425E-02 -3.1650800E-03
  1.7261280E-02 -3.3079048E-03
  1.8285830E-02 -3.4501299E-03
  1.9306419E-02 -3.5918099E-03
  2.0323373E-02 -3.7329798E-03
  2.1336969E-02 -3.8736849E-03
  2.2347469E-02 -4.0139649E-03
  2.3355100E-02 -4.1538398E-03
  2.4360064E-02 -4.2933500E-03
  0.0000000E+00 -1.0714299E-03
  6.6666497E-04 -1.0714299E-03
  1.3333351E-03 -1.0714299E-03
  2.0000001E-03 -1.0714299E-03
  2.9812397E-03 -1.0204100E-03
  3.9624847E-03 -9.6938998E-04
  4.9437247E-03 -9.1836497E-04
  5.9249699E-03 -8.6734502E-04
  6.9062100E-03 -8.1632502E-04
  7.8874500E-03 -7.6530501E-04
  8.8686943E-03 -7.1428501E-04
  9.8275542E-03 -7.6383003E-04
  1.0773874E-02 -8.1272493E-04
  1.1709141E-02 -8.6104497E-04
  1.2634605E-02 -9.0886501E-04
  1.3551340E-02 -9.5622998E-04
  1.4460275E-02 -1.0031949E-03
  1.5362199E-02 -1.0497950E-03
  1.6257809E-02 -1.0960700E-03
  1.7147705E-02 -1.1420500E-03
  1.8032419E-02 -1.1877600E-03
  1.8912416E-02 -1.2332300E-03
  1.9788099E-02 -1.2784749E-03
  2.0659849E-02 -1.3235150E-03
  2.1527980E-02 -1.3683700E-03
  2.2392785E-02 -1.4130550E-03
  0.0000000E+00  1.0714299E-03
  6.6666497E-04  1.0714299E-03
  1.3333351E-03  1.0714299E-03
  2.0000001E-03  1.0714299E-03
  2.9812397E-03  1.0204100E-03
  3.9624847E-03  9.6938998E-04
  4.9437247E-03  9.1836497E-04
  5.9249699E-03  8.6734502E-04
  6.9062100E-03  8.1632502E-04
  7.8874500E-03  7.6530501E-04
  8.8686943E-03  7.1428501E-04
  9.7127492E-03  7.6365500E-04
  1.0540490E-02  8.1206497E-04
  1.1354160E-02  8.5965497E-04
  1.2155615E-02  9.0653001E-04
  1.2946405E-02  9.5278502E-04
  1.3727815E-02  9.9848502E-04
  1.4500939E-02  1.0437049E-03
  1.5266710E-02  1.0884950E-03
  1.6025919E-02  1.1328999E-03
  1.6779259E-02  1.1769600E-03
  1.7527310E-02  1.2207100E-03
  1.8270599E-02  1.2641849E-03
  1.9009570E-02  1.3074049E-03
  1.9744616E-02  1.3503999E-03
  2.0476095E-02  1.3931800E-03
  0.0000000E+00  3.2142850E-03
  6.6666497E-04  3.2142850E-03
  1.3333351E-03  3.2142850E-03
  2.0000001E-03  3.2142850E-03
  2.9812397E-03  3.0612249E-03
  3.9624847E-03  2.9081649E-03
  4.9437247E-03  2.7551001E-03
  5.9249699E-03  2.6020398E-03
  6.9062100E-03  2.4489800E-03
  7.8874500E-03  2.2959199E-03
  8.8686943E-03  2.1428550E-03
  9.5980149E-03  2.2902850E-03
  1.0307555E-02  2.4337149E-03
  1.1000535E-02  2.5738000E-03
  1.1679500E-02  2.7110497E-03
  1.2346510E-02  2.8458848E-03
  1.3003230E-02  2.9786350E-03
  1.3651039E-02  3.1095902E-03
  1.4291075E-02  3.2389699E-03
  1.4924294E-02  3.3669700E-03
  1.5551495E-02  3.4937549E-03
  1.6173361E-02  3.6194648E-03
  1.6790474E-02  3.7442099E-03
  1.7403340E-02  3.8681000E-03
  1.8012386E-02  3.9912150E-03
  1.8617984E-02  4.1136350E-03
  0.0000000E+00  5.3571449E-03
  6.6666497E-04  5.3571449E-03
  1.3333351E-03  5.3571449E-03
  2.0000001E-03  5.3571449E-03
  2.9812397E-03  5.1020402E-03
  3.9624847E-03  4.8469398E-03
  4.9437247E-03  4.5918352E-03
  5.9249699E-03  4.3367348E-03
  6.9062100E-03  4.0816348E-03
  7.8874500E-03  3.8265300E-03
  8.8686943E-03  3.5714300E-03
  9.4833700E-03  3.8156551E-03
  1.0075275E-02  4.0508350E-03
  1.0648809E-02  4.2787199E-03
  1.1207325E-02  4.5006298E-03
  1.1753390E-02  4.7176001E-03
  1.2289024E-02  4.9304250E-03
  1.2815840E-02  5.1397402E-03
  1.3335126E-02  5.3460649E-03
  1.3847924E-02  5.5498201E-03
  1.4355110E-02  5.7513351E-03
  1.4857399E-02  5.9509096E-03
  1.5355390E-02  6.1487751E-03
  1.5849585E-02  6.3451347E-03
  1.6340420E-02  6.5401546E-03
  1.6828254E-02  6.7339847E-03
  0.0000000E+00  7.4999998E-03
  6.6666497E-04  7.4999998E-03
  1.3333351E-03  7.4999998E-03
  2.0000001E-03  7.4999998E-03
  2.9812397E-03  7.1428549E-03
  3.9624847E-03  6.7857150E-03
  4.9437247E-03  6.4285700E-03
  5.9249699E-03  6.0714297E-03
  6.9062100E-03  5.7142847E-03
  7.8874500E-03  5.3571449E-03
  8.8686943E-03  4.9999999E-03
  9.3688797E-03  5.3390297E-03
  9.8439800E-03  5.6610601E-03
  1.0299885E-02  5.9700799E-03
  1.0740765E-02  6.2689148E-03
  1.1169676E-02  6.5596346E-03
  1.1588885E-02  6.8437802E-03
  1.2000130E-02  7.1225250E-03
  1.2404750E-02  7.3967800E-03
  1.2803804E-02  7.6672649E-03
  1.3198139E-02  7.9345498E-03
  1.3588429E-02  8.1990995E-03
  1.3975244E-02  8.4612854E-03
  1.4359029E-02  8.7214150E-03
  1.4740170E-02  8.9797592E-03
  1.5118985E-02  9.2365248E-03
