  Title="2D heat conduction problem"
  Variables="x","y","T"
  ZONE I= 51       J= 51      F=POINT
        0.00000            0.00000              0.36788
        0.01020            0.00000              0.36976
        0.03061            0.00000              0.37356
        0.05102            0.00000              0.37739
        0.07143            0.00000              0.38126
        0.09184            0.00000              0.38517
        0.11224            0.00000              0.38912
        0.13265            0.00000              0.39311
        0.15306            0.00000              0.39714
        0.17347            0.00000              0.40122
        0.19388            0.00000              0.40533
        0.21429            0.00000              0.40949
        0.23469            0.00000              0.41369
        0.25510            0.00000              0.41793
        0.27551            0.00000              0.42222
        0.29592            0.00000              0.42655
        0.31633            0.00000              0.43092
        0.33673            0.00000              0.43534
        0.35714            0.00000              0.43981
        0.37755            0.00000              0.44432
        0.39796            0.00000              0.44887
        0.41837            0.00000              0.45348
        0.43878            0.00000              0.45813
        0.45918            0.00000              0.46283
        0.47959            0.00000              0.46758
        0.50000            0.00000              0.47237
        0.52041            0.00000              0.47722
        0.54082            0.00000              0.48211
        0.56122            0.00000              0.48705
        0.58163            0.00000              0.49205
        0.60204            0.00000              0.49710
        0.62245            0.00000              0.50220
        0.64286            0.00000              0.50735
        0.66327            0.00000              0.51255
        0.68367            0.00000              0.51781
        0.70408            0.00000              0.52312
        0.72449            0.00000              0.52848
        0.74490            0.00000              0.53390
        0.76531            0.00000              0.53938
        0.78571            0.00000              0.54491
        0.80612            0.00000              0.55050
        0.82653            0.00000              0.55615
        0.84694            0.00000              0.56185
        0.86735            0.00000              0.56761
        0.88775            0.00000              0.57343
        0.90816            0.00000              0.57931
        0.92857            0.00000              0.58526
        0.94898            0.00000              0.59126
        0.96939            0.00000              0.59732
        0.98980            0.00000              0.60345
        1.00000            0.00000              0.60654
        0.00000            0.01020              0.36976
        0.01020            0.01020              0.37165
        0.03061            0.01020              0.37547
        0.05102            0.01020              0.37933
        0.07143            0.01020              0.38322
        0.09184            0.01020              0.38716
        0.11224            0.01020              0.39113
        0.13265            0.01020              0.39515
        0.15306            0.01020              0.39920
        0.17347            0.01020              0.40330
        0.19388            0.01020              0.40744
        0.21429            0.01020              0.41162
        0.23469            0.01020              0.41584
        0.25510            0.01020              0.42011
        0.27551            0.01020              0.42442
        0.29592            0.01020              0.42878
        0.31633            0.01020              0.43318
        0.33673            0.01020              0.43762
        0.35714            0.01020              0.44211
        0.37755            0.01020              0.44664
        0.39796            0.01020              0.45123
        0.41837            0.01020              0.45585
        0.43878            0.01020              0.46053
        0.45918            0.01020              0.46525
        0.47959            0.01020              0.47002
        0.50000            0.01020              0.47484
        0.52041            0.01020              0.47971
        0.54082            0.01020              0.48463
        0.56122            0.01020              0.48960
        0.58163            0.01020              0.49462
        0.60204            0.01020              0.49970
        0.62245            0.01020              0.50482
        0.64286            0.01020              0.51000
        0.66327            0.01020              0.51523
        0.68367            0.01020              0.52051
        0.70408            0.01020              0.52584
        0.72449            0.01020              0.53124
        0.74490            0.01020              0.53668
        0.76531            0.01020              0.54218
        0.78571            0.01020              0.54774
        0.80612            0.01020              0.55336
        0.82653            0.01020              0.55903
        0.84694            0.01020              0.56476
        0.86735            0.01020              0.57054
        0.88775            0.01020              0.57639
        0.90816            0.01020              0.58230
        0.92857            0.01020              0.58826
        0.94898            0.01020              0.59429
        0.96939            0.01020              0.60038
        0.98980            0.01020              0.60653
        1.00000            0.01020              0.60964
        0.00000            0.03061              0.37356
        0.01020            0.03061              0.37547
        0.03061            0.03061              0.37934
        0.05102            0.03061              0.38324
        0.07143            0.03061              0.38719
        0.09184            0.03061              0.39117
        0.11224            0.03061              0.39520
        0.13265            0.03061              0.39926
        0.15306            0.03061              0.40336
        0.17347            0.03061              0.40751
        0.19388            0.03061              0.41170
        0.21429            0.03061              0.41593
        0.23469            0.03061              0.42020
        0.25510            0.03061              0.42451
        0.27551            0.03061              0.42887
        0.29592            0.03061              0.43328
        0.31633            0.03061              0.43772
        0.33673            0.03061              0.44222
        0.35714            0.03061              0.44676
        0.37755            0.03061              0.45134
        0.39796            0.03061              0.45597
        0.41837            0.03061              0.46065
        0.43878            0.03061              0.46537
        0.45918            0.03061              0.47015
        0.47959            0.03061              0.47497
        0.50000            0.03061              0.47984
        0.52041            0.03061              0.48476
        0.54082            0.03061              0.48973
        0.56122            0.03061              0.49475
        0.58163            0.03061              0.49982
        0.60204            0.03061              0.50495
        0.62245            0.03061              0.51012
        0.64286            0.03061              0.51535
        0.66327            0.03061              0.52063
        0.68367            0.03061              0.52596
        0.70408            0.03061              0.53135
        0.72449            0.03061              0.53679
        0.74490            0.03061              0.54229
        0.76531            0.03061              0.54785
        0.78571            0.03061              0.55346
        0.80612            0.03061              0.55912
        0.82653            0.03061              0.56485
        0.84694            0.03061              0.57063
        0.86735            0.03061              0.57647
        0.88775            0.03061              0.58236
        0.90816            0.03061              0.58832
        0.92857            0.03061              0.59434
        0.94898            0.03061              0.60042
        0.96939            0.03061              0.60656
        0.98980            0.03061              0.61276
        1.00000            0.03061              0.61589
        0.00000            0.05102              0.37739
        0.01020            0.05102              0.37933
        0.03061            0.05102              0.38324
        0.05102            0.05102              0.38720
        0.07143            0.05102              0.39119
        0.09184            0.05102              0.39523
        0.11224            0.05102              0.39930
        0.13265            0.05102              0.40341
        0.15306            0.05102              0.40756
        0.17347            0.05102              0.41176
        0.19388            0.05102              0.41599
        0.21429            0.05102              0.42027
        0.23469            0.05102              0.42459
        0.25510            0.05102              0.42896
        0.27551            0.05102              0.43337
        0.29592            0.05102              0.43782
        0.31633            0.05102              0.44232
        0.33673            0.05102              0.44686
        0.35714            0.05102              0.45145
        0.37755            0.05102              0.45608
        0.39796            0.05102              0.46076
        0.41837            0.05102              0.46549
        0.43878            0.05102              0.47026
        0.45918            0.05102              0.47509
        0.47959            0.05102              0.47996
        0.50000            0.05102              0.48488
        0.52041            0.05102              0.48985
        0.54082            0.05102              0.49487
        0.56122            0.05102              0.49995
        0.58163            0.05102              0.50507
        0.60204            0.05102              0.51024
        0.62245            0.05102              0.51547
        0.64286            0.05102              0.52075
        0.66327            0.05102              0.52608
        0.68367            0.05102              0.53147
        0.70408            0.05102              0.53691
        0.72449            0.05102              0.54241
        0.74490            0.05102              0.54796
        0.76531            0.05102              0.55356
        0.78571            0.05102              0.55923
        0.80612            0.05102              0.56494
        0.82653            0.05102              0.57072
        0.84694            0.05102              0.57655
        0.86735            0.05102              0.58244
        0.88775            0.05102              0.58839
        0.90816            0.05102              0.59440
        0.92857            0.05102              0.60047
        0.94898            0.05102              0.60660
        0.96939            0.05102              0.61279
        0.98980            0.05102              0.61905
        1.00000            0.05102              0.62221
        0.00000            0.07143              0.38126
        0.01020            0.07143              0.38322
        0.03061            0.07143              0.38719
        0.05102            0.07143              0.39119
        0.07143            0.07143              0.39524
        0.09184            0.07143              0.39932
        0.11224            0.07143              0.40344
        0.13265            0.07143              0.40760
        0.15306            0.07143              0.41180
        0.17347            0.07143              0.41605
        0.19388            0.07143              0.42033
        0.21429            0.07143              0.42466
        0.23469            0.07143              0.42903
        0.25510            0.07143              0.43344
        0.27551            0.07143              0.43790
        0.29592            0.07143              0.44240
        0.31633            0.07143              0.44695
        0.33673            0.07143              0.45154
        0.35714            0.07143              0.45618
        0.37755            0.07143              0.46086
        0.39796            0.07143              0.46559
        0.41837            0.07143              0.47037
        0.43878            0.07143              0.47520
        0.45918            0.07143              0.48007
        0.47959            0.07143              0.48500
        0.50000            0.07143              0.48997
        0.52041            0.07143              0.49499
        0.54082            0.07143              0.50006
        0.56122            0.07143              0.50519
        0.58163            0.07143              0.51036
        0.60204            0.07143              0.51559
        0.62245            0.07143              0.52087
        0.64286            0.07143              0.52620
        0.66327            0.07143              0.53159
        0.68367            0.07143              0.53703
        0.70408            0.07143              0.54252
        0.72449            0.07143              0.54807
        0.74490            0.07143              0.55367
        0.76531            0.07143              0.55933
        0.78571            0.07143              0.56505
        0.80612            0.07143              0.57082
        0.82653            0.07143              0.57665
        0.84694            0.07143              0.58254
        0.86735            0.07143              0.58848
        0.88775            0.07143              0.59448
        0.90816            0.07143              0.60054
        0.92857            0.07143              0.60667
        0.94898            0.07143              0.61285
        0.96939            0.07143              0.61909
        0.98980            0.07143              0.62540
        1.00000            0.07143              0.62859
        0.00000            0.09184              0.38517
        0.01020            0.09184              0.38716
        0.03061            0.09184              0.39117
        0.05102            0.09184              0.39523
        0.07143            0.09184              0.39932
        0.09184            0.09184              0.40345
        0.11224            0.09184              0.40762
        0.13265            0.09184              0.41183
        0.15306            0.09184              0.41608
        0.17347            0.09184              0.42038
        0.19388            0.09184              0.42471
        0.21429            0.09184              0.42909
        0.23469            0.09184              0.43351
        0.25510            0.09184              0.43797
        0.27551            0.09184              0.44248
        0.29592            0.09184              0.44703
        0.31633            0.09184              0.45162
        0.33673            0.09184              0.45627
        0.35714            0.09184              0.46095
        0.37755            0.09184              0.46569
        0.39796            0.09184              0.47047
        0.41837            0.09184              0.47530
        0.43878            0.09184              0.48018
        0.45918            0.09184              0.48510
        0.47959            0.09184              0.49008
        0.50000            0.09184              0.49510
        0.52041            0.09184              0.50018
        0.54082            0.09184              0.50530
        0.56122            0.09184              0.51048
        0.58163            0.09184              0.51570
        0.60204            0.09184              0.52098
        0.62245            0.09184              0.52632
        0.64286            0.09184              0.53170
        0.66327            0.09184              0.53714
        0.68367            0.09184              0.54263
        0.70408            0.09184              0.54818
        0.72449            0.09184              0.55378
        0.74490            0.09184              0.55944
        0.76531            0.09184              0.56515
        0.78571            0.09184              0.57092
        0.80612            0.09184              0.57675
        0.82653            0.09184              0.58263
        0.84694            0.09184              0.58857
        0.86735            0.09184              0.59457
        0.88775            0.09184              0.60063
        0.90816            0.09184              0.60674
        0.92857            0.09184              0.61292
        0.94898            0.09184              0.61916
        0.96939            0.09184              0.62546
        0.98980            0.09184              0.63182
        1.00000            0.09184              0.63504
        0.00000            0.11224              0.38912
        0.01020            0.11224              0.39113
        0.03061            0.11224              0.39520
        0.05102            0.11224              0.39930
        0.07143            0.11224              0.40344
        0.09184            0.11224              0.40762
        0.11224            0.11224              0.41184
        0.13265            0.11224              0.41610
        0.15306            0.11224              0.42040
        0.17347            0.11224              0.42474
        0.19388            0.11224              0.42913
        0.21429            0.11224              0.43355
        0.23469            0.11224              0.43802
        0.25510            0.11224              0.44254
        0.27551            0.11224              0.44709
        0.29592            0.11224              0.45169
        0.31633            0.11224              0.45634
        0.33673            0.11224              0.46103
        0.35714            0.11224              0.46577
        0.37755            0.11224              0.47056
        0.39796            0.11224              0.47539
        0.41837            0.11224              0.48027
        0.43878            0.11224              0.48520
        0.45918            0.11224              0.49018
        0.47959            0.11224              0.49520
        0.50000            0.11224              0.50028
        0.52041            0.11224              0.50541
        0.54082            0.11224              0.51059
        0.56122            0.11224              0.51581
        0.58163            0.11224              0.52109
        0.60204            0.11224              0.52643
        0.62245            0.11224              0.53181
        0.64286            0.11224              0.53725
        0.66327            0.11224              0.54275
        0.68367            0.11224              0.54829
        0.70408            0.11224              0.55389
        0.72449            0.11224              0.55955
        0.74490            0.11224              0.56526
        0.76531            0.11224              0.57103
        0.78571            0.11224              0.57686
        0.80612            0.11224              0.58274
        0.82653            0.11224              0.58868
        0.84694            0.11224              0.59467
        0.86735            0.11224              0.60072
        0.88775            0.11224              0.60684
        0.90816            0.11224              0.61301
        0.92857            0.11224              0.61924
        0.94898            0.11224              0.62553
        0.96939            0.11224              0.63189
        0.98980            0.11224              0.63831
        1.00000            0.11224              0.64155
        0.00000            0.13265              0.39311
        0.01020            0.13265              0.39515
        0.03061            0.13265              0.39926
        0.05102            0.13265              0.40341
        0.07143            0.13265              0.40760
        0.09184            0.13265              0.41183
        0.11224            0.13265              0.41610
        0.13265            0.13265              0.42041
        0.15306            0.13265              0.42476
        0.17347            0.13265              0.42915
        0.19388            0.13265              0.43359
        0.21429            0.13265              0.43806
        0.23469            0.13265              0.44258
        0.25510            0.13265              0.44714
        0.27551            0.13265              0.45175
        0.29592            0.13265              0.45640
        0.31633            0.13265              0.46110
        0.33673            0.13265              0.46584
        0.35714            0.13265              0.47063
        0.37755            0.13265              0.47547
        0.39796            0.13265              0.48036
        0.41837            0.13265              0.48529
        0.43878            0.13265              0.49027
        0.45918            0.13265              0.49530
        0.47959            0.13265              0.50038
        0.50000            0.13265              0.50551
        0.52041            0.13265              0.51069
        0.54082            0.13265              0.51592
        0.56122            0.13265              0.52120
        0.58163            0.13265              0.52653
        0.60204            0.13265              0.53192
        0.62245            0.13265              0.53736
        0.64286            0.13265              0.54285
        0.66327            0.13265              0.54840
        0.68367            0.13265              0.55400
        0.70408            0.13265              0.55966
        0.72449            0.13265              0.56537
        0.74490            0.13265              0.57114
        0.76531            0.13265              0.57696
        0.78571            0.13265              0.58284
        0.80612            0.13265              0.58878
        0.82653            0.13265              0.59477
        0.84694            0.13265              0.60082
        0.86735            0.13265              0.60693
        0.88775            0.13265              0.61310
        0.90816            0.13265              0.61933
        0.92857            0.13265              0.62562
        0.94898            0.13265              0.63196
        0.96939            0.13265              0.63838
        0.98980            0.13265              0.64486
        1.00000            0.13265              0.64813
        0.00000            0.15306              0.39714
        0.01020            0.15306              0.39920
        0.03061            0.15306              0.40336
        0.05102            0.15306              0.40756
        0.07143            0.15306              0.41180
        0.09184            0.15306              0.41608
        0.11224            0.15306              0.42040
        0.13265            0.15306              0.42476
        0.15306            0.15306              0.42916
        0.17347            0.15306              0.43360
        0.19388            0.15306              0.43809
        0.21429            0.15306              0.44261
        0.23469            0.15306              0.44718
        0.25510            0.15306              0.45180
        0.27551            0.15306              0.45645
        0.29592            0.15306              0.46116
        0.31633            0.15306              0.46590
        0.33673            0.15306              0.47070
        0.35714            0.15306              0.47554
        0.37755            0.15306              0.48043
        0.39796            0.15306              0.48536
        0.41837            0.15306              0.49035
        0.43878            0.15306              0.49538
        0.45918            0.15306              0.50046
        0.47959            0.15306              0.50560
        0.50000            0.15306              0.51078
        0.52041            0.15306              0.51601
        0.54082            0.15306              0.52130
        0.56122            0.15306              0.52663
        0.58163            0.15306              0.53202
        0.60204            0.15306              0.53746
        0.62245            0.15306              0.54296
        0.64286            0.15306              0.54851
        0.66327            0.15306              0.55411
        0.68367            0.15306              0.55976
        0.70408            0.15306              0.56548
        0.72449            0.15306              0.57124
        0.74490            0.15306              0.57707
        0.76531            0.15306              0.58295
        0.78571            0.15306              0.58888
        0.80612            0.15306              0.59488
        0.82653            0.15306              0.60093
        0.84694            0.15306              0.60704
        0.86735            0.15306              0.61320
        0.88775            0.15306              0.61943
        0.90816            0.15306              0.62571
        0.92857            0.15306              0.63206
        0.94898            0.15306              0.63846
        0.96939            0.15306              0.64494
        0.98980            0.15306              0.65147
        1.00000            0.15306              0.65478
        0.00000            0.17347              0.40122
        0.01020            0.17347              0.40330
        0.03061            0.17347              0.40751
        0.05102            0.17347              0.41176
        0.07143            0.17347              0.41605
        0.09184            0.17347              0.42037
        0.11224            0.17347              0.42474
        0.13265            0.17347              0.42915
        0.15306            0.17347              0.43360
        0.17347            0.17347              0.43809
        0.19388            0.17347              0.44263
        0.21429            0.17347              0.44720
        0.23469            0.17347              0.45182
        0.25510            0.17347              0.45649
        0.27551            0.17347              0.46120
        0.29592            0.17347              0.46595
        0.31633            0.17347              0.47075
        0.33673            0.17347              0.47560
        0.35714            0.17347              0.48049
        0.37755            0.17347              0.48543
        0.39796            0.17347              0.49042
        0.41837            0.17347              0.49546
        0.43878            0.17347              0.50054
        0.45918            0.17347              0.50568
        0.47959            0.17347              0.51086
        0.50000            0.17347              0.51610
        0.52041            0.17347              0.52139
        0.54082            0.17347              0.52672
        0.56122            0.17347              0.53212
        0.58163            0.17347              0.53756
        0.60204            0.17347              0.54306
        0.62245            0.17347              0.54860
        0.64286            0.17347              0.55421
        0.66327            0.17347              0.55987
        0.68367            0.17347              0.56558
        0.70408            0.17347              0.57135
        0.72449            0.17347              0.57717
        0.74490            0.17347              0.58305
        0.76531            0.17347              0.58899
        0.78571            0.17347              0.59498
        0.80612            0.17347              0.60103
        0.82653            0.17347              0.60714
        0.84694            0.17347              0.61331
        0.86735            0.17347              0.61953
        0.88775            0.17347              0.62581
        0.90816            0.17347              0.63216
        0.92857            0.17347              0.63856
        0.94898            0.17347              0.64503
        0.96939            0.17347              0.65156
        0.98980            0.17347              0.65816
        1.00000            0.17347              0.66149
        0.00000            0.19388              0.40533
        0.01020            0.19388              0.40744
        0.03061            0.19388              0.41170
        0.05102            0.19388              0.41599
        0.07143            0.19388              0.42033
        0.09184            0.19388              0.42471
        0.11224            0.19388              0.42913
        0.13265            0.19388              0.43359
        0.15306            0.19388              0.43809
        0.17347            0.19388              0.44263
        0.19388            0.19388              0.44721
        0.21429            0.19388              0.45184
        0.23469            0.19388              0.45651
        0.25510            0.19388              0.46123
        0.27551            0.19388              0.46599
        0.29592            0.19388              0.47079
        0.31633            0.19388              0.47564
        0.33673            0.19388              0.48054
        0.35714            0.19388              0.48549
        0.37755            0.19388              0.49048
        0.39796            0.19388              0.49552
        0.41837            0.19388              0.50061
        0.43878            0.19388              0.50575