  Title="2D heat conduction problem"
  Variables="x","y","T"
  ZONE I=101       J=101      F=POINT
        0.00000            0.00000            400.52747
        0.00101            0.00000            406.14847
        0.00303            0.00000            413.45651
        0.00505            0.00000            419.92020
        0.00707            0.00000            425.86197
        0.00909            0.00000            431.42957
        0.01111            0.00000            436.70605
        0.01313            0.00000            441.74438
        0.01515            0.00000            446.58112
        0.01717            0.00000            451.24271
        0.01919            0.00000            455.74951
        0.02121            0.00000            460.11743
        0.02323            0.00000            464.35922
        0.02525            0.00000            468.48535
        0.02727            0.00000            472.50439
        0.02929            0.00000            476.42395
        0.03131            0.00000            480.25015
        0.03333            0.00000            483.98846
        0.03535            0.00000            487.64374
        0.03737            0.00000            491.22003
        0.03939            0.00000            494.72119
        0.04141            0.00000            498.15027
        0.04343            0.00000            501.51041
        0.04545            0.00000            504.80438
        0.04747            0.00000            508.03442
        0.04949            0.00000            511.20306
        0.05152            0.00000            514.31219
        0.05354            0.00000            517.36383
        0.05556            0.00000            520.35956
        0.05758            0.00000            523.30121
        0.05960            0.00000            526.19043
        0.06162            0.00000            529.02863
        0.06364            0.00000            531.81702
        0.06566            0.00000            534.55676
        0.06768            0.00000            537.24927
        0.06970            0.00000            539.89618
        0.07172            0.00000            542.49823
        0.07374            0.00000            545.05652
        0.07576            0.00000            547.57227
        0.07778            0.00000            550.04626
        0.07980            0.00000            552.47968
        0.08182            0.00000            554.87329
        0.08384            0.00000            557.22821
        0.08586            0.00000            559.54517
        0.08788            0.00000            561.82507
        0.08990            0.00000            564.06885
        0.09192            0.00000            566.27728
        0.09394            0.00000            568.45105
        0.09596            0.00000            570.59094
        0.09798            0.00000            572.69775
        0.10000            0.00000            574.77216
        0.10202            0.00000            576.81500
        0.10404            0.00000            578.82697
        0.10606            0.00000            580.80865
        0.10808            0.00000            582.76080
        0.11010            0.00000            584.68384
        0.11212            0.00000            586.57874
        0.11414            0.00000            588.44562
        0.11616            0.00000            590.28564
        0.11818            0.00000            592.09918
        0.12020            0.00000            593.88678
        0.12222            0.00000            595.64893
        0.12424            0.00000            597.38617
        0.12626            0.00000            599.09906
        0.12828            0.00000            600.78833
        0.13030            0.00000            602.45398
        0.13232            0.00000            604.09705
        0.13434            0.00000            605.71765
        0.13636            0.00000            607.31616
        0.13838            0.00000            608.89331
        0.14040            0.00000            610.44940
        0.14242            0.00000            611.98468
        0.14444            0.00000            613.49994
        0.14646            0.00000            614.99536
        0.14848            0.00000            616.47144
        0.15050            0.00000            617.92853
        0.15253            0.00000            619.36670
        0.15455            0.00000            620.78680
        0.15657            0.00000            622.18884
        0.15859            0.00000            623.57343
        0.16061            0.00000            624.94043
        0.16263            0.00000            626.29053
        0.16465            0.00000            627.62408
        0.16667            0.00000            628.94098
        0.16869            0.00000            630.24182
        0.17071            0.00000            631.52655
        0.17273            0.00000            632.79559
        0.17475            0.00000            634.04938
        0.17677            0.00000            635.28778
        0.17879            0.00000            636.51123
        0.18081            0.00000            637.71973
        0.18283            0.00000            638.91370
        0.18485            0.00000            640.09314
        0.18687            0.00000            641.25806
        0.18889            0.00000            642.40881
        0.19091            0.00000            643.54541
        0.19293            0.00000            644.66803
        0.19495            0.00000            645.77692
        0.19697            0.00000            646.87207
        0.19899            0.00000            647.95355
        0.20000            0.00000            648.48474
        0.00000            0.00051            400.00000
        0.00101            0.00051            405.62692
        0.00303            0.00051            412.94269
        0.00505            0.00051            419.41321
        0.00707            0.00051            425.36124
        0.00909            0.00051            430.93472
        0.01111            0.00051            436.21680
        0.01313            0.00051            441.26044
        0.01515            0.00051            446.10226
        0.01717            0.00051            450.76880
        0.01919            0.00051            455.28036
        0.02121            0.00051            459.65289
        0.02323            0.00051            463.89917
        0.02525            0.00051            468.02963
        0.02727            0.00051            472.05292
        0.02929            0.00051            475.97662
        0.03131            0.00051            479.80685
        0.03333            0.00051            483.54913
        0.03535            0.00051            487.20825
        0.03737            0.00051            490.78833
        0.03939            0.00051            494.29318
        0.04141            0.00051            497.72589
        0.04343            0.00051            501.08957
        0.04545            0.00051            504.38702
        0.04747            0.00051            507.62048
        0.04949            0.00051            510.79245
        0.05152            0.00051            513.90485
        0.05354            0.00051            516.95972
        0.05556            0.00051            519.95862
        0.05758            0.00051            522.90338
        0.05960            0.00051            525.79565
        0.06162            0.00051            528.63684
        0.06364            0.00051            531.42816
        0.06566            0.00051            534.17078
        0.06768            0.00051            536.86615
        0.06970            0.00051            539.51587
        0.07172            0.00051            542.12067
        0.07374            0.00051            544.68164
        0.07576            0.00051            547.20001
        0.07778            0.00051            549.67664
        0.07980            0.00051            552.11261
        0.08182            0.00051            554.50879
        0.08384            0.00051            556.86615
        0.08586            0.00051            559.18561
        0.08788            0.00051            561.46790
        0.08990            0.00051            563.71405
        0.09192            0.00051            565.92480
        0.09394            0.00051            568.10089
        0.09596            0.00051            570.24304
        0.09798            0.00051            572.35205
        0.10000            0.00051            574.42865
        0.10202            0.00051            576.47363
        0.10404            0.00051            578.48773
        0.10606            0.00051            580.47150
        0.10808            0.00051            582.42572
        0.11010            0.00051            584.35077
        0.11212            0.00051            586.24768
        0.11414            0.00051            588.11658
        0.11616            0.00051            589.95850
        0.11818            0.00051            591.77399
        0.12020            0.00051            593.56348
        0.12222            0.00051            595.32745
        0.12424            0.00051            597.06653
        0.12626            0.00051            598.78125
        0.12828            0.00051            600.47229
        0.13030            0.00051            602.13971
        0.13232            0.00051            603.78448
        0.13434            0.00051            605.40680
        0.13636            0.00051            607.00702
        0.13838            0.00051            608.58582
        0.14040            0.00051            610.14355
        0.14242            0.00051            611.68048
        0.14444            0.00051            613.19733
        0.14646            0.00051            614.69434
        0.14848            0.00051            616.17194
        0.15050            0.00051            617.63062
        0.15253            0.00051            619.07031
        0.15455            0.00051            620.49188
        0.15657            0.00051            621.89539
        0.15859            0.00051            623.28143
        0.16061            0.00051            624.64990
        0.16263            0.00051            626.00140
        0.16465            0.00051            627.33636
        0.16667            0.00051            628.65466
        0.16869            0.00051            629.95691
        0.17071            0.00051            631.24298
        0.17273            0.00051            632.51337
        0.17475            0.00051            633.76849
        0.17677            0.00051            635.00818
        0.17879            0.00051            636.23291
        0.18081            0.00051            637.44269
        0.18283            0.00051            638.63794
        0.18485            0.00051            639.81860
        0.18687            0.00051            640.98474
        0.18889            0.00051            642.13672
        0.19091            0.00051            643.27454
        0.19293            0.00051            644.39832
        0.19495            0.00051            645.50836
        0.19697            0.00051            646.60468
        0.19899            0.00051            647.68732
        0.20000            0.00051            648.21906
        0.00000            0.00152            400.00000
        0.00101            0.00152            404.58392
        0.00303            0.00152            411.91525
        0.00505            0.00152            418.39948
        0.00707            0.00152            424.36020
        0.00909            0.00152            429.94556
        0.01111            0.00152            435.23892
        0.01313            0.00152            440.29330
        0.01515            0.00152            445.14539
        0.01717            0.00152            449.82187
        0.01919            0.00152            454.34308
        0.02121            0.00152            458.72495
        0.02323            0.00152            462.98029
        0.02525            0.00152            467.11954
        0.02727            0.00152            471.15149
        0.02929            0.00152            475.08353
        0.03131            0.00152            478.92197
        0.03333            0.00152            482.67221
        0.03535            0.00152            486.33914
        0.03737            0.00152            489.92688
        0.03939            0.00152            493.43921
        0.04141            0.00152            496.87927
        0.04343            0.00152            500.25018
        0.04545            0.00152            503.55466
        0.04747            0.00152            506.79504
        0.04949            0.00152            509.97382
        0.05152            0.00152            513.09290
        0.05354            0.00152            516.15417
        0.05556            0.00152            519.15961
        0.05758            0.00152            522.11066
        0.05960            0.00152            525.00916
        0.06162            0.00152            527.85638
        0.06364            0.00152            530.65369
        0.06566            0.00152            533.40216
        0.06768            0.00152            536.10333
        0.06970            0.00152            538.75867
        0.07172            0.00152            541.36914
        0.07374            0.00152            543.93555
        0.07576            0.00152            546.45929
        0.07778            0.00152            548.94122
        0.07980            0.00152            551.38245
        0.08182            0.00152            553.78381
        0.08384            0.00152            556.14618
        0.08586            0.00152            558.47064
        0.08788            0.00152            560.75775
        0.08990            0.00152            563.00879
        0.09192            0.00152            565.22424
        0.09394            0.00152            567.40491
        0.09596            0.00152            569.55170
        0.09798            0.00152            571.66522
        0.10000            0.00152            573.74628
        0.10202            0.00152            575.79572
        0.10404            0.00152            577.81409
        0.10606            0.00152            579.80212
        0.10808            0.00152            581.76044
        0.11010            0.00152            583.68970
        0.11212            0.00152            585.59058
        0.11414            0.00152            587.46350
        0.11616            0.00152            589.30945
        0.11818            0.00152            591.12872
        0.12020            0.00152            592.92206
        0.12222            0.00152            594.68988
        0.12424            0.00152            596.43268
        0.12626            0.00152            598.15100
        0.12828            0.00152            599.84564
        0.13030            0.00152            601.51672
        0.13232            0.00152            603.16498
        0.13434            0.00152            604.79071
        0.13636            0.00152            606.39435
        0.13838            0.00152            607.97650
        0.14040            0.00152            609.53754
        0.14242            0.00152            611.07776
        0.14444            0.00152            612.59778
        0.14646            0.00152            614.09802
        0.14848            0.00152            615.57880
        0.15050            0.00152            617.04053
        0.15253            0.00152            618.48334
        0.15455            0.00152            619.90790
        0.15657            0.00152            621.31445
        0.15859            0.00152            622.70337
        0.16061            0.00152            624.07483
        0.16263            0.00152            625.42914
        0.16465            0.00152            626.76685
        0.16667            0.00152            628.08795
        0.16869            0.00152            629.39294
        0.17071            0.00152            630.68176
        0.17273            0.00152            631.95483
        0.17475            0.00152            633.21259
        0.17677            0.00152            634.45496
        0.17879            0.00152            635.68225
        0.18081            0.00152            636.89459
        0.18283            0.00152            638.09229
        0.18485            0.00152            639.27545
        0.18687            0.00152            640.44409
        0.18889            0.00152            641.59845
        0.19091            0.00152            642.73865
        0.19293            0.00152            643.86487
        0.19495            0.00152            644.97717
        0.19697            0.00152            646.07574
        0.19899            0.00152            647.16071
        0.20000            0.00152            647.69360
        0.00000            0.00253            400.00000
        0.00101            0.00253            404.00015
        0.00303            0.00253            411.09985
        0.00505            0.00253            417.51706
        0.00707            0.00253            423.45352
        0.00909            0.00253            429.03006
        0.01111            0.00253            434.32153
        0.01313            0.00253            439.37762
        0.01515            0.00253            444.23349
        0.01717            0.00253            448.91495
        0.01919            0.00253            453.44193
        0.02121            0.00253            457.83005
        0.02323            0.00253            462.09198
        0.02525            0.00253            466.23801
        0.02727            0.00253            470.27682
        0.02929            0.00253            474.21582
        0.03131            0.00253            478.06113
        0.03333            0.00253            481.81836
        0.03535            0.00253            485.49216
        0.03737            0.00253            489.08676
        0.03939            0.00253            492.60587
        0.04141            0.00253            496.05261
        0.04343            0.00253            499.43024
        0.04545            0.00253            502.74124
        0.04747            0.00253            505.98807
        0.04949            0.00253            509.17331
        0.05152            0.00253            512.29865
        0.05354            0.00253            515.36615
        0.05556            0.00253            518.37769
        0.05758            0.00253            521.33478
        0.05960            0.00253            524.23920
        0.06162            0.00253            527.09229
        0.06364            0.00253            529.89526
        0.06566            0.00253            532.64941
        0.06768            0.00253            535.35632
        0.06970            0.00253            538.01703
        0.07172            0.00253            540.63287
        0.07374            0.00253            543.20465
        0.07576            0.00253            545.73370
        0.07778            0.00253            548.22076
        0.07980            0.00253            550.66705
        0.08182            0.00253            553.07343
        0.08384            0.00253            555.44073
        0.08586            0.00253            557.77002
        0.08788            0.00253            560.06195
        0.08990            0.00253            562.31769
        0.09192            0.00253            564.53778
        0.09394            0.00253            566.72296
        0.09596            0.00253            568.87427
        0.09798            0.00253            570.99213
        0.10000            0.00253            573.07758
        0.10202            0.00253            575.13129
        0.10404            0.00253            577.15393
        0.10606            0.00253            579.14612
        0.10808            0.00253            581.10852
        0.11010            0.00253            583.04181
        0.11212            0.00253            584.94666
        0.11414            0.00253            586.82349
        0.11616            0.00253            588.67328
        0.11818            0.00253            590.49634
        0.12020            0.00253            592.29340
        0.12222            0.00253            594.06494
        0.12424            0.00253            595.81146
        0.12626            0.00253            597.53345
        0.12828            0.00253            599.23163
        0.13030            0.00253            600.90613
        0.13232            0.00253            602.55786
        0.13434            0.00253            604.18695
        0.13636            0.00253            605.79401
        0.13838            0.00253            607.37939
        0.14040            0.00253            608.94366
        0.14242            0.00253            610.48712
        0.14444            0.00253            612.01025
        0.14646            0.00253            613.51367
        0.14848            0.00253            614.99750
        0.15050            0.00253            616.46222
        0.15253            0.00253            617.90808
        0.15455            0.00253            619.33563
        0.15657            0.00253            620.74506
        0.15859            0.00253            622.13684
        0.16061            0.00253            623.51117
        0.16263            0.00253            624.86835
        0.16465            0.00253            626.20868
        0.16667            0.00253            627.53259
        0.16869            0.00253            628.84027
        0.17071            0.00253            630.13177
        0.17273            0.00253            631.40753
        0.17475            0.00253            632.66779
        0.17677            0.00253            633.91284
        0.17879            0.00253            635.14252
        0.18081            0.00253            636.35742
        0.18283            0.00253            637.55762
        0.18485            0.00253            638.74316
        0.18687            0.00253            639.91418
        0.18889            0.00253            641.07092
        0.19091            0.00253            642.21350
        0.19293            0.00253            643.34204
        0.19495            0.00253            644.45660
        0.19697            0.00253            645.55737
        0.19899            0.00253            646.64441
        0.20000            0.00253            647.17834
        0.00000            0.00354            400.00000
        0.00101            0.00354            403.64172
        0.00303            0.00354            410.45529
        0.00505            0.00354            416.75522
        0.00707            0.00354            422.63739
        0.00909            0.00354            428.18643
        0.01111            0.00354            433.46371
        0.01313            0.00354            438.51291
        0.01515            0.00354            443.36615
        0.01717            0.00354            448.04779
        0.01919            0.00354            452.57678
        0.02121            0.00354            456.96814
        0.02323            0.00354            461.23416
        0.02525            0.00354            465.38495
        0.02727            0.00354            469.42892
        0.02929            0.00354            473.37341
        0.03131            0.00354            477.22443
        0.03333            0.00354            480.98752
        0.03535            0.00354            484.66733
        0.03737            0.00354            488.26797
        0.03939            0.00354            491.79312
        0.04141            0.00354            495.24603
        0.04343            0.00354            498.62967
        0.04545            0.00354            501.94672
        0.04747            0.00354            505.19965
        0.04949            0.00354            508.39081
        0.05152            0.00354            511.52209
        0.05354            0.00354            514.59552
        0.05556            0.00354            517.61285
        0.05758            0.00354            520.57568
        0.05960            0.00354            523.48578
        0.06162            0.00354            526.34454
        0.06364            0.00354            529.15308
        0.06566            0.00354            531.91272
        0.06768            0.00354            534.62500
        0.06970            0.00354            537.29102
        0.07172            0.00354            539.91211
        0.07374            0.00354            542.48907
        0.07576            0.00354            545.02319
        0.07778            0.00354            547.51526
        0.07980            0.00354            549.96649
        0.08182            0.00354            552.37775
        0.08384            0.00354            554.74982
        0.08586            0.00354            557.08386
        0.08788            0.00354            559.38049
        0.08990            0.00354            561.64081
        0.09192            0.00354            563.86536
        0.09394            0.00354            566.05499
        0.09596            0.00354            568.21069
        0.09798            0.00354            570.33289
        0.10000            0.00354            572.42261
        0.10202            0.00354            574.48047
        0.10404            0.00354            576.50726
        0.10606            0.00354            578.50348
        0.10808            0.00354            580.46991
        0.11010            0.00354            582.40717
        0.11212            0.00354            584.31592
        0.11414            0.00354            586.19659
        0.11616            0.00354            588.05011
        0.11818            0.00354            589.87683
        0.12020            0.00354            591.67761
        0.12222            0.00354            593.45282
        0.12424            0.00354            595.20288
        0.12626            0.00354            596.92841
        0.12828            0.00354            598.63000
        0.13030            0.00354            600.30798
        0.13232            0.00354            601.96301
        0.13434            0.00354            603.59546
        0.13636            0.00354            605.20575
        0.13838            0.00354            606.79437
        0.14040            0.00354            608.36182
        0.14242            0.00354            609.90845
        0.14444            0.00354            611.43469
        0.14646            0.00354            612.94104
        0.14848            0.00354            614.42786
        0.15050            0.00354            615.89563
        0.15253            0.00354            617.34436
        0.15455            0.00354            618.77484
        0.15657            0.00354            620.18713
        0.15859            0.00354            621.58179
        0.16061            0.00354            622.95892
        0.16263            0.00354            624.31879
        0.16465            0.00354            625.66187
        0.16667            0.00354            626.98846
        0.16869            0.00354            628.29871
        0.17071            0.00354            629.59283
        0.17273            0.00354            630.87122
        0.17475            0.00354            632.13403
        0.17677            0.00354            633.38159
        0.17879            0.00354            634.61371
        0.18081            0.00354            635.83105
        0.18283            0.00354            637.03363
        0.18485            0.00354            638.22156
        0.18687            0.00354            639.39496
        0.18889            0.00354            640.55408
        0.19091            0.00354            641.69897
        0.19293            0.00354            642.82965
        0.19495            0.00354            643.94641
        0.19697            0.00354            645.04938
        0.19899            0.00354            646.13855
        0.20000            0.00354            646.67358
        0.00000            0.00455            400.00000
        0.00101            0.00455            403.40079
        0.00303            0.00455            409.93936
        0.00505            0.00455            416.09811
        0.00707            0.00455            421.90494
        0.00909            0.00455            427.41147
        0.01111            0.00455            432.66376
        0.01313            0.00455            437.69812
        0.01515            0.00455            442.54285
        0.01717            0.00455            447.22006
        0.01919            0.00455            451.74738
        0.02121            0.00455            456.13907
        0.02323            0.00455            460.40680
        0.02525            0.00455            464.56027
        0.02727            0.00455            468.60779
        0.02929            0.00455            472.55630
        0.03131            0.00455            476.41187
        0.03333            0.00455            480.17984
        0.03535            0.00455            483.86465
        0.03737            0.00455            487.47058
        0.03939            0.00455            491.00107
        0.04141            0.00455            494.45950
        0.04343            0.00455            497.84869
        0.04545            0.00455            501.17130
        0.04747            0.00455            504.42984
        0.04949            0.00455            507.62659
        0.05152            0.00455            510.76340
        0.05354            0.00455            513.84241