  Title="2D heat conduction problem"
  Variables="x","y","T"
  ZONE I=101       J=101      F=POINT
        0.00000            0.00000            400.31378
        0.00101            0.00000            403.77908
        0.00303            0.00000            408.36462
        0.00505            0.00000            412.44537
        0.00707            0.00000            416.21338
        0.00909            0.00000            419.75656
        0.01111            0.00000            423.12451
        0.01313            0.00000            426.34863
        0.01515            0.00000            429.45087
        0.01717            0.00000            432.44705
        0.01919            0.00000            435.34930
        0.02121            0.00000            438.16699
        0.02323            0.00000            440.90796
        0.02525            0.00000            443.57837
        0.02727            0.00000            446.18335
        0.02929            0.00000            448.72748
        0.03131            0.00000            451.21451
        0.03333            0.00000            453.64764
        0.03535            0.00000            456.02988
        0.03737            0.00000            458.36368
        0.03939            0.00000            460.65115
        0.04141            0.00000            462.89453
        0.04343            0.00000            465.09546
        0.04545            0.00000            467.25568
        0.04747            0.00000            469.37659
        0.04949            0.00000            471.45966
        0.05152            0.00000            473.50613
        0.05354            0.00000            475.51712
        0.05556            0.00000            477.49399
        0.05758            0.00000            479.43735
        0.05960            0.00000            481.34854
        0.06162            0.00000            483.22833
        0.06364            0.00000            485.07767
        0.06566            0.00000            486.89725
        0.06768            0.00000            488.68790
        0.06970            0.00000            490.45035
        0.07172            0.00000            492.18530
        0.07374            0.00000            493.89349
        0.07576            0.00000            495.57550
        0.07778            0.00000            497.23206
        0.07980            0.00000            498.86368
        0.08182            0.00000            500.47107
        0.08384            0.00000            502.05490
        0.08586            0.00000            503.61551
        0.08788            0.00000            505.15366
        0.08990            0.00000            506.66971
        0.09192            0.00000            508.16437
        0.09394            0.00000            509.63794
        0.09596            0.00000            511.09116
        0.09798            0.00000            512.52435
        0.10000            0.00000            513.93793
        0.10202            0.00000            515.33264
        0.10404            0.00000            516.70868
        0.10606            0.00000            518.06665
        0.10808            0.00000            519.40692
        0.11010            0.00000            520.72980
        0.11212            0.00000            522.03589
        0.11414            0.00000            523.32556
        0.11616            0.00000            524.59912
        0.11818            0.00000            525.85706
        0.12020            0.00000            527.09967
        0.12222            0.00000            528.32745
        0.12424            0.00000            529.54059
        0.12626            0.00000            530.73962
        0.12828            0.00000            531.92480
        0.13030            0.00000            533.09625
        0.13232            0.00000            534.25458
        0.13434            0.00000            535.40015
        0.13636            0.00000            536.53314
        0.13838            0.00000            537.65369
        0.14040            0.00000            538.76233
        0.14242            0.00000            539.85925
        0.14444            0.00000            540.94482
        0.14646            0.00000            542.01923
        0.14848            0.00000            543.08264
        0.15050            0.00000            544.13550
        0.15253            0.00000            545.17798
        0.15455            0.00000            546.21014
        0.15657            0.00000            547.23242
        0.15859            0.00000            548.24487
        0.16061            0.00000            549.24792
        0.16263            0.00000            550.24158
        0.16465            0.00000            551.22595
        0.16667            0.00000            552.20135
        0.16869            0.00000            553.16809
        0.17071            0.00000            554.12616
        0.17273            0.00000            555.07556
        0.17475            0.00000            556.01666
        0.17677            0.00000            556.94952
        0.17879            0.00000            557.87427
        0.18081            0.00000            558.79108
        0.18283            0.00000            559.69989
        0.18485            0.00000            560.60101
        0.18687            0.00000            561.49432
        0.18889            0.00000            562.38013
        0.19091            0.00000            563.25830
        0.19293            0.00000            564.12903
        0.19495            0.00000            564.99225
        0.19697            0.00000            565.84802
        0.19899            0.00000            566.69653
        0.20000            0.00000            567.11462
        0.00000            0.00051            400.00000
        0.00101            0.00051            403.46747
        0.00303            0.00051            408.05591
        0.00505            0.00051            412.13922
        0.00707            0.00051            415.90958
        0.00909            0.00051            419.45499
        0.01111            0.00051            422.82504
        0.01313            0.00051            426.05121
        0.01515            0.00051            429.15540
        0.01717            0.00051            432.15344
        0.01919            0.00051            435.05753
        0.02121            0.00051            437.87698
        0.02323            0.00051            440.61966
        0.02525            0.00051            443.29175
        0.02727            0.00051            445.89838
        0.02929            0.00051            448.44409
        0.03131            0.00051            450.93268
        0.03333            0.00051            453.36734
        0.03535            0.00051            455.75107
        0.03737            0.00051            458.08633
        0.03939            0.00051            460.37527
        0.04141            0.00051            462.62006
        0.04343            0.00051            464.82236
        0.04545            0.00051            466.98392
        0.04747            0.00051            469.10617
        0.04949            0.00051            471.19055
        0.05152            0.00051            473.23831
        0.05354            0.00051            475.25055
        0.05556            0.00051            477.22867
        0.05758            0.00051            479.17325
        0.05960            0.00051            481.08563
        0.06162            0.00051            482.96661
        0.06364            0.00051            484.81711
        0.06566            0.00051            486.63785
        0.06768            0.00051            488.42960
        0.06970            0.00051            490.19318
        0.07172            0.00051            491.92920
        0.07374            0.00051            493.63846
        0.07576            0.00051            495.32153
        0.07778            0.00051            496.97913
        0.07980            0.00051            498.61179
        0.08182            0.00051            500.22018
        0.08384            0.00051            501.80499
        0.08586            0.00051            503.36658
        0.08788            0.00051            504.90570
        0.08990            0.00051            506.42270
        0.09192            0.00051            507.91830
        0.09394            0.00051            509.39279
        0.09596            0.00051            510.84692
        0.09798            0.00051            512.28101
        0.10000            0.00051            513.69550
        0.10202            0.00051            515.09106
        0.10404            0.00051            516.46796
        0.10606            0.00051            517.82678
        0.10808            0.00051            519.16791
        0.11010            0.00051            520.49164
        0.11212            0.00051            521.79852
        0.11414            0.00051            523.08905
        0.11616            0.00051            524.36340
        0.11818            0.00051            525.62213
        0.12020            0.00051            526.86548
        0.12222            0.00051            528.09406
        0.12424            0.00051            529.30792
        0.12626            0.00051            530.50775
        0.12828            0.00051            531.69366
        0.13030            0.00051            532.86584
        0.13232            0.00051            534.02490
        0.13434            0.00051            535.17120
        0.13636            0.00051            536.30487
        0.13838            0.00051            537.42615
        0.14040            0.00051            538.53546
        0.14242            0.00051            539.63312
        0.14444            0.00051            540.71936
        0.14646            0.00051            541.79443
        0.14848            0.00051            542.85852
        0.15050            0.00051            543.91205
        0.15253            0.00051            544.95514
        0.15455            0.00051            545.98798
        0.15657            0.00051            547.01086
        0.15859            0.00051            548.02399
        0.16061            0.00051            549.02765
        0.16263            0.00051            550.02191
        0.16465            0.00051            551.00696
        0.16667            0.00051            551.98297
        0.16869            0.00051            552.95032
        0.17071            0.00051            553.90894
        0.17273            0.00051            554.85895
        0.17475            0.00051            555.80066
        0.17677            0.00051            556.73407
        0.17879            0.00051            557.65942
        0.18081            0.00051            558.57678
        0.18283            0.00051            559.48621
        0.18485            0.00051            560.38788
        0.18687            0.00051            561.28174
        0.18889            0.00051            562.16809
        0.19091            0.00051            563.04681
        0.19293            0.00051            563.91809
        0.19495            0.00051            564.78186
        0.19697            0.00051            565.63818
        0.19899            0.00051            566.48724
        0.20000            0.00051            566.90558
        0.00000            0.00152            400.00000
        0.00101            0.00152            402.84436
        0.00303            0.00152            407.43866
        0.00505            0.00152            411.52716
        0.00707            0.00152            415.30234
        0.00909            0.00152            418.85229
        0.01111            0.00152            422.22662
        0.01313            0.00152            425.45697
        0.01515            0.00152            428.56516
        0.01717            0.00152            431.56705
        0.01919            0.00152            434.47488
        0.02121            0.00152            437.29797
        0.02323            0.00152            440.04416
        0.02525            0.00152            442.71967
        0.02727            0.00152            445.32968
        0.02929            0.00152            447.87869
        0.03131            0.00152            450.37051
        0.03333            0.00152            452.80832
        0.03535            0.00152            455.19513
        0.03737            0.00152            457.53339
        0.03939            0.00152            459.82529
        0.04141            0.00152            462.07294
        0.04343            0.00152            464.27811
        0.04545            0.00152            466.44247
        0.04747            0.00152            468.56747
        0.04949            0.00152            470.65454
        0.05152            0.00152            472.70493
        0.05354            0.00152            474.71988
        0.05556            0.00152            476.70044
        0.05758            0.00152            478.64758
        0.05960            0.00152            480.56250
        0.06162            0.00152            482.44586
        0.06364            0.00152            484.29877
        0.06566            0.00152            486.12189
        0.06768            0.00152            487.91595
        0.06970            0.00152            489.68182
        0.07172            0.00152            491.42010
        0.07374            0.00152            493.13156
        0.07576            0.00152            494.81683
        0.07778            0.00152            496.47656
        0.07980            0.00152            498.11139
        0.08182            0.00152            499.72189
        0.08384            0.00152            501.30869
        0.08586            0.00152            502.87234
        0.08788            0.00152            504.41345
        0.08990            0.00152            505.93243
        0.09192            0.00152            507.42993
        0.09394            0.00152            508.90634
        0.09596            0.00152            510.36237
        0.09798            0.00152            511.79831
        0.10000            0.00152            513.21466
        0.10202            0.00152            514.61200
        0.10404            0.00152            515.99066
        0.10606            0.00152            517.35126
        0.10808            0.00152            518.69409
        0.11010            0.00152            520.01959
        0.11212            0.00152            521.32819
        0.11414            0.00152            522.62036
        0.11616            0.00152            523.89636
        0.11818            0.00152            525.15674
        0.12020            0.00152            526.40173
        0.12222            0.00152            527.63184
        0.12424            0.00152            528.84729
        0.12626            0.00152            530.04865
        0.12828            0.00152            531.23608
        0.13030            0.00152            532.40985
        0.13232            0.00152            533.57037
        0.13434            0.00152            534.71808
        0.13636            0.00152            535.85321
        0.13838            0.00152            536.97595
        0.14040            0.00152            538.08673
        0.14242            0.00152            539.18573
        0.14444            0.00152            540.27344
        0.14646            0.00152            541.34985
        0.14848            0.00152            542.41534
        0.15050            0.00152            543.47015
        0.15253            0.00152            544.51453
        0.15455            0.00152            545.54877
        0.15657            0.00152            546.57300
        0.15859            0.00152            547.58746
        0.16061            0.00152            548.59235
        0.16263            0.00152            549.58783
        0.16465            0.00152            550.57416
        0.16667            0.00152            551.55145
        0.16869            0.00152            552.51996
        0.17071            0.00152            553.47974
        0.17273            0.00152            554.43103
        0.17475            0.00152            555.37390
        0.17677            0.00152            556.30853
        0.17879            0.00152            557.23505
        0.18081            0.00152            558.15356
        0.18283            0.00152            559.06409
        0.18485            0.00152            559.96686
        0.18687            0.00152            560.86194
        0.18889            0.00152            561.74933
        0.19091            0.00152            562.62915
        0.19293            0.00152            563.50153
        0.19495            0.00152            564.36633
        0.19697            0.00152            565.22375
        0.19899            0.00152            566.07385
        0.20000            0.00152            566.49274
        0.00000            0.00253            400.00000
        0.00101            0.00253            402.49496
        0.00303            0.00253            406.94806
        0.00505            0.00253            410.99380
        0.00707            0.00253            414.75183
        0.00909            0.00253            418.29410
        0.01111            0.00253            421.66495
        0.01313            0.00253            424.89410
        0.01515            0.00253            428.00241
        0.01717            0.00253            431.00522
        0.01919            0.00253            433.91452
        0.02121            0.00253            436.73944
        0.02323            0.00253            439.48767
        0.02525            0.00253            442.16541
        0.02727            0.00253            444.77783
        0.02929            0.00253            447.32925
        0.03131            0.00253            449.82358
        0.03333            0.00253            452.26398
        0.03535            0.00253            454.65329
        0.03737            0.00253            456.99411
        0.03939            0.00253            459.28864
        0.04141            0.00253            461.53879
        0.04343            0.00253            463.74649
        0.04545            0.00253            465.91342
        0.04747            0.00253            468.04092
        0.04949            0.00253            470.13046
        0.05152            0.00253            472.18332
        0.05354            0.00253            474.20071
        0.05556            0.00253            476.18365
        0.05758            0.00253            478.13321
        0.05960            0.00253            480.05045
        0.06162            0.00253            481.93616
        0.06364            0.00253            483.79126
        0.06566            0.00253            485.61673
        0.06768            0.00253            487.41302
        0.06970            0.00253            489.18106
        0.07172            0.00253            490.92157
        0.07374            0.00253            492.63513
        0.07576            0.00253            494.32254
        0.07778            0.00253            495.98428
        0.07980            0.00253            497.62122
        0.08182            0.00253            499.23370
        0.08384            0.00253            500.82257
        0.08586            0.00253            502.38821
        0.08788            0.00253            503.93121
        0.08990            0.00253            505.45212
        0.09192            0.00253            506.95151
        0.09394            0.00253            508.42984
        0.09596            0.00253            509.88766
        0.09798            0.00253            511.32544
        0.10000            0.00253            512.74359
        0.10202            0.00253            514.14276
        0.10404            0.00253            515.52313
        0.10606            0.00253            516.88544
        0.10808            0.00253            518.22998
        0.11010            0.00253            519.55713
        0.11212            0.00253            520.86737
        0.11414            0.00253            522.16119
        0.11616            0.00253            523.43884
        0.11818            0.00253            524.70074
        0.12020            0.00253            525.94733
        0.12222            0.00253            527.17896
        0.12424            0.00253            528.39600
        0.12626            0.00253            529.59882
        0.12828            0.00253            530.78778
        0.13030            0.00253            531.96307
        0.13232            0.00253            533.12512
        0.13434            0.00253            534.27417
        0.13636            0.00253            535.41071
        0.13838            0.00253            536.53491
        0.14040            0.00253            537.64709
        0.14242            0.00253            538.74750
        0.14444            0.00253            539.83655
        0.14646            0.00253            540.91431
        0.14848            0.00253            541.98120
        0.15050            0.00253            543.03729
        0.15253            0.00253            544.08295
        0.15455            0.00253            545.11847
        0.15657            0.00253            546.14398
        0.15859            0.00253            547.15967
        0.16061            0.00253            548.16583
        0.16263            0.00253            549.16260
        0.16465            0.00253            550.15009
        0.16667            0.00253            551.12866
        0.16869            0.00253            552.09833
        0.17071            0.00253            553.05933
        0.17273            0.00253            554.01172
        0.17475            0.00253            554.95575
        0.17677            0.00253            555.89160
        0.17879            0.00253            556.81927
        0.18081            0.00253            557.73883
        0.18283            0.00253            558.65057
        0.18485            0.00253            559.55444
        0.18687            0.00253            560.45056
        0.18889            0.00253            561.33911
        0.19091            0.00253            562.21997
        0.19293            0.00253            563.09332
        0.19495            0.00253            563.95923
        0.19697            0.00253            564.81769
        0.19899            0.00253            565.66888
        0.20000            0.00253            566.08826
        0.00000            0.00354            400.00000
        0.00101            0.00354            402.27991
        0.00303            0.00354            406.55960
        0.00505            0.00354            410.53271
        0.00707            0.00354            414.25574
        0.00909            0.00354            417.77927
        0.01111            0.00354            421.13940
        0.01313            0.00354            424.36218
        0.01515            0.00354            427.46683
        0.01717            0.00354            430.46777
        0.01919            0.00354            433.37628
        0.02121            0.00354            436.20129
        0.02323            0.00354            438.95013
        0.02525            0.00354            441.62894
        0.02727            0.00354            444.24271
        0.02929            0.00354            446.79572
        0.03131            0.00354            449.29187
        0.03333            0.00354            451.73419
        0.03535            0.00354            454.12558
        0.03737            0.00354            456.46851
        0.03939            0.00354            458.76520
        0.04141            0.00354            461.01758
        0.04343            0.00354            463.22751
        0.04545            0.00354            465.39664
        0.04747            0.00354            467.52643
        0.04949            0.00354            469.61826
        0.05152            0.00354            471.67346
        0.05354            0.00354            473.69305
        0.05556            0.00354            475.67828
        0.05758            0.00354            477.63007
        0.05960            0.00354            479.54947
        0.06162            0.00354            481.43738
        0.06364            0.00354            483.29468
        0.06566            0.00354            485.12231
        0.06768            0.00354            486.92075
        0.06970            0.00354            488.69095
        0.07172            0.00354            490.43356
        0.07374            0.00354            492.14914
        0.07576            0.00354            493.83859
        0.07778            0.00354            495.50238
        0.07980            0.00354            497.14130
        0.08182            0.00354            498.75574
        0.08384            0.00354            500.34656
        0.08586            0.00354            501.91412
        0.08788            0.00354            503.45901
        0.08990            0.00354            504.98181
        0.09192            0.00354            506.48303
        0.09394            0.00354            507.96320
        0.09596            0.00354            509.42279
        0.09798            0.00354            510.86230
        0.10000            0.00354            512.28229
        0.10202            0.00354            513.68317
        0.10404            0.00354            515.06525
        0.10606            0.00354            516.42920
        0.10808            0.00354            517.77539
        0.11010            0.00354            519.10419
        0.11212            0.00354            520.41608
        0.11414            0.00354            521.71149
        0.11616            0.00354            522.99072
        0.11818            0.00354            524.25415
        0.12020            0.00354            525.50226
        0.12222            0.00354            526.73541
        0.12424            0.00354            527.95398
        0.12626            0.00354            529.15833
        0.12828            0.00354            530.34875
        0.13030            0.00354            531.52545
        0.13232            0.00354            532.68890
        0.13434            0.00354            533.83942
        0.13636            0.00354            534.97736
        0.13838            0.00354            536.10291
        0.14040            0.00354            537.21649
        0.14242            0.00354            538.31830
        0.14444            0.00354            539.40863
        0.14646            0.00354            540.48779
        0.14848            0.00354            541.55591
        0.15050            0.00354            542.61328
        0.15253            0.00354            543.66028
        0.15455            0.00354            544.69702
        0.15657            0.00354            545.72382
        0.15859            0.00354            546.74072
        0.16061            0.00354            547.74811
        0.16263            0.00354            548.74603
        0.16465            0.00354            549.73474
        0.16667            0.00354            550.71454
        0.16869            0.00354            551.68536
        0.17071            0.00354            552.64746
        0.17273            0.00354            553.60101
        0.17475            0.00354            554.54626
        0.17677            0.00354            555.48328
        0.17879            0.00354            556.41199
        0.18081            0.00354            557.33264
        0.18283            0.00354            558.24548
        0.18485            0.00354            559.15045
        0.18687            0.00354            560.04761
        0.18889            0.00354            560.93726
        0.19091            0.00354            561.81915
        0.19293            0.00354            562.69354
        0.19495            0.00354            563.56049
        0.19697            0.00354            564.41998
        0.19899            0.00354            565.27222
        0.20000            0.00354            565.69208
        0.00000            0.00455            400.00000
        0.00101            0.00455            402.13501
        0.00303            0.00455            406.24802
        0.00505            0.00455            410.13434
        0.00707            0.00455            413.81000
        0.00909            0.00455            417.30579
        0.01111            0.00455            420.64874
        0.01313            0.00455            423.86053
        0.01515            0.00455            426.95804
        0.01717            0.00455            429.95435
        0.01919            0.00455            432.85999
        0.02121            0.00455            435.68335
        0.02323            0.00455            438.43146
        0.02525            0.00455            441.11014
        0.02727            0.00455            443.72433
        0.02929            0.00455            446.27814
        0.03131            0.00455            448.77542
        0.03333            0.00455            451.21909
        0.03535            0.00455            453.61197
        0.03737            0.00455            455.95654
        0.03939            0.00455            458.25500
        0.04141            0.00455            460.50925
        0.04343            0.00455            462.72110
        0.04545            0.00455            464.89224
        0.04747            0.00455            467.02405
        0.04949            0.00455            469.11798
        0.05152            0.00455            471.17523
        0.05354            0.00455            473.19696