  Title="2D heat conduction problem"
  Variables="x","y","T"
  ZONE I=101       J=101      F=POINT
        0.00000            0.00000            402.56812
        0.00101            0.00000            423.31775
        0.00303            0.00000            446.05341
        0.00505            0.00000            464.87851
        0.00707            0.00000            481.33917
        0.00909            0.00000            496.14160
        0.01111            0.00000            509.68170
        0.01313            0.00000            522.21069
        0.01515            0.00000            533.90149
        0.01717            0.00000            544.87988
        0.01919            0.00000            555.24091
        0.02121            0.00000            565.05914
        0.02323            0.00000            574.39398
        0.02525            0.00000            583.29431
        0.02727            0.00000            591.80011
        0.02929            0.00000            599.94562
        0.03131            0.00000            607.75964
        0.03333            0.00000            615.26715
        0.03535            0.00000            622.48962
        0.03737            0.00000            629.44647
        0.03939            0.00000            636.15405
        0.04141            0.00000            642.62738
        0.04343            0.00000            648.87982
        0.04545            0.00000            654.92340
        0.04747            0.00000            660.76892
        0.04949            0.00000            666.42615
        0.05152            0.00000            671.90411
        0.05354            0.00000            677.21136
        0.05556            0.00000            682.35529
        0.05758            0.00000            687.34308
        0.05960            0.00000            692.18127
        0.06162            0.00000            696.87628
        0.06364            0.00000            701.43292
        0.06566            0.00000            705.85724
        0.06768            0.00000            710.15442
        0.06970            0.00000            714.32898
        0.07172            0.00000            718.38574
        0.07374            0.00000            722.32874
        0.07576            0.00000            726.16229
        0.07778            0.00000            729.88995
        0.07980            0.00000            733.51562
        0.08182            0.00000            737.04291
        0.08384            0.00000            740.47504
        0.08586            0.00000            743.81549
        0.08788            0.00000            747.06714
        0.08990            0.00000            750.23322
        0.09192            0.00000            753.31635
        0.09394            0.00000            756.31958
        0.09596            0.00000            759.24554
        0.09798            0.00000            762.09662
        0.10000            0.00000            764.87573
        0.10202            0.00000            767.58484
        0.10404            0.00000            770.22656
        0.10606            0.00000            772.80316
        0.10808            0.00000            775.31665
        0.11010            0.00000            777.76929
        0.11212            0.00000            780.16302
        0.11414            0.00000            782.49976
        0.11616            0.00000            784.78174
        0.11818            0.00000            787.01025
        0.12020            0.00000            789.18750
        0.12222            0.00000            791.31531
        0.12424            0.00000            793.39502
        0.12626            0.00000            795.42847
        0.12828            0.00000            797.41742
        0.13030            0.00000            799.36310
        0.13232            0.00000            801.26697
        0.13434            0.00000            803.13062
        0.13636            0.00000            804.95526
        0.13838            0.00000            806.74237
        0.14040            0.00000            808.49304
        0.14242            0.00000            810.20856
        0.14444            0.00000            811.89020
        0.14646            0.00000            813.53900
        0.14848            0.00000            815.15643
        0.15050            0.00000            816.74286
        0.15253            0.00000            818.29993
        0.15455            0.00000            819.82843
        0.15657            0.00000            821.32953
        0.15859            0.00000            822.80389
        0.16061            0.00000            824.25238
        0.16263            0.00000            825.67590
        0.16465            0.00000            827.07544
        0.16667            0.00000            828.45160
        0.16869            0.00000            829.80511
        0.17071            0.00000            831.13696
        0.17273            0.00000            832.44757
        0.17475            0.00000            833.73767
        0.17677            0.00000            835.00800
        0.17879            0.00000            836.25897
        0.18081            0.00000            837.49139
        0.18283            0.00000            838.70557
        0.18485            0.00000            839.90222
        0.18687            0.00000            841.08154
        0.18889            0.00000            842.24445
        0.19091            0.00000            843.39093
        0.19293            0.00000            844.52167
        0.19495            0.00000            845.63696
        0.19697            0.00000            846.73712
        0.19899            0.00000            847.82257
        0.20000            0.00000            848.35583
        0.00000            0.00051            400.00000
        0.00101            0.00051            420.85675
        0.00303            0.00051            443.70981
        0.00505            0.00051            462.63208
        0.00707            0.00051            479.17773
        0.00909            0.00051            494.05658
        0.01111            0.00051            507.66656
        0.01313            0.00051            520.26025
        0.01515            0.00051            532.01141
        0.01717            0.00051            543.04645
        0.01919            0.00051            553.46100
        0.02121            0.00051            563.32990
        0.02323            0.00051            572.71295
        0.02525            0.00051            581.65918
        0.02727            0.00051            590.20892
        0.02929            0.00051            598.39648
        0.03131            0.00051            606.25085
        0.03333            0.00051            613.79712
        0.03535            0.00051            621.05688
        0.03737            0.00051            628.04962
        0.03939            0.00051            634.79187
        0.04141            0.00051            641.29858
        0.04343            0.00051            647.58331
        0.04545            0.00051            653.65808
        0.04747            0.00051            659.53381
        0.04949            0.00051            665.22021
        0.05152            0.00051            670.72650
        0.05354            0.00051            676.06116
        0.05556            0.00051            681.23163
        0.05758            0.00051            686.24518
        0.05960            0.00051            691.10834
        0.06162            0.00051            695.82758
        0.06364            0.00051            700.40771
        0.06566            0.00051            704.85492
        0.06768            0.00051            709.17426
        0.06970            0.00051            713.37036
        0.07172            0.00051            717.44806
        0.07374            0.00051            721.41144
        0.07576            0.00051            725.26477
        0.07778            0.00051            729.01166
        0.07980            0.00051            732.65607
        0.08182            0.00051            736.20154
        0.08384            0.00051            739.65143
        0.08586            0.00051            743.00909
        0.08788            0.00051            746.27753
        0.08990            0.00051            749.45996
        0.09192            0.00051            752.55902
        0.09394            0.00051            755.57776
        0.09596            0.00051            758.51880
        0.09798            0.00051            761.38464
        0.10000            0.00051            764.17810
        0.10202            0.00051            766.90118
        0.10404            0.00051            769.55652
        0.10606            0.00051            772.14642
        0.10808            0.00051            774.67291
        0.11010            0.00051            777.13818
        0.11212            0.00051            779.54431
        0.11414            0.00051            781.89307
        0.11616            0.00051            784.18683
        0.11818            0.00051            786.42688
        0.12020            0.00051            788.61536
        0.12222            0.00051            790.75415
        0.12424            0.00051            792.84460
        0.12626            0.00051            794.88855
        0.12828            0.00051            796.88776
        0.13030            0.00051            798.84351
        0.13232            0.00051            800.75720
        0.13434            0.00051            802.63049
        0.13636            0.00051            804.46454
        0.13838            0.00051            806.26086
        0.14040            0.00051            808.02057
        0.14242            0.00051            809.74493
        0.14444            0.00051            811.43524
        0.14646            0.00051            813.09259
        0.14848            0.00051            814.71838
        0.15050            0.00051            816.31299
        0.15253            0.00051            817.87811
        0.15455            0.00051            819.41449
        0.15657            0.00051            820.92334
        0.15859            0.00051            822.40533
        0.16061            0.00051            823.86127
        0.16263            0.00051            825.29218
        0.16465            0.00051            826.69891
        0.16667            0.00051            828.08215
        0.16869            0.00051            829.44269
        0.17071            0.00051            830.78137
        0.17273            0.00051            832.09875
        0.17475            0.00051            833.39551
        0.17677            0.00051            834.67242
        0.17879            0.00051            835.92987
        0.18081            0.00051            837.16864
        0.18283            0.00051            838.38910
        0.18485            0.00051            839.59192
        0.18687            0.00051            840.77734
        0.18889            0.00051            841.94623
        0.19091            0.00051            843.09863
        0.19293            0.00051            844.23523
        0.19495            0.00051            845.35626
        0.19697            0.00051            846.46210
        0.19899            0.00051            847.55316
        0.20000            0.00051            848.08917
        0.00000            0.00152            400.00000
        0.00101            0.00152            415.93488
        0.00303            0.00152            439.02280
        0.00505            0.00152            458.13962
        0.00707            0.00152            474.85538
        0.00909            0.00152            489.88724
        0.01111            0.00152            503.63718
        0.01313            0.00152            516.36035
        0.01515            0.00152            528.23242
        0.01717            0.00152            539.38092
        0.01919            0.00152            549.90265
        0.02121            0.00152            559.87305
        0.02323            0.00152            569.35260
        0.02525            0.00152            578.39081
        0.02727            0.00152            587.02850
        0.02929            0.00152            595.30035
        0.03131            0.00152            603.23553
        0.03333            0.00152            610.85944
        0.03535            0.00152            618.19397
        0.03737            0.00152            625.25867
        0.03939            0.00152            632.07025
        0.04141            0.00152            638.64392
        0.04343            0.00152            644.99341
        0.04545            0.00152            651.13068
        0.04747            0.00152            657.06683
        0.04949            0.00152            662.81177
        0.05152            0.00152            668.37482
        0.05354            0.00152            673.76434
        0.05556            0.00152            678.98804
        0.05758            0.00152            684.05322
        0.05960            0.00152            688.96643
        0.06162            0.00152            693.73413
        0.06364            0.00152            698.36157
        0.06566            0.00152            702.85461
        0.06768            0.00152            707.21838
        0.06970            0.00152            711.45770
        0.07172            0.00152            715.57733
        0.07374            0.00152            719.58154
        0.07576            0.00152            723.47449
        0.07778            0.00152            727.25995
        0.07980            0.00152            730.94196
        0.08182            0.00152            734.52393
        0.08384            0.00152            738.00934
        0.08586            0.00152            741.40155
        0.08788            0.00152            744.70367
        0.08990            0.00152            747.91876
        0.09192            0.00152            751.04974
        0.09394            0.00152            754.09961
        0.09596            0.00152            757.07086
        0.09798            0.00152            759.96631
        0.10000            0.00152            762.78851
        0.10202            0.00152            765.53961
        0.10404            0.00152            768.22223
        0.10606            0.00152            770.83881
        0.10808            0.00152            773.39130
        0.11010            0.00152            775.88196
        0.11212            0.00152            778.31281
        0.11414            0.00152            780.68585
        0.11616            0.00152            783.00311
        0.11818            0.00152            785.26624
        0.12020            0.00152            787.47723
        0.12222            0.00152            789.63800
        0.12424            0.00152            791.74994
        0.12626            0.00152            793.81500
        0.12828            0.00152            795.83472
        0.13030            0.00152            797.81049
        0.13232            0.00152            799.74390
        0.13434            0.00152            801.63641
        0.13636            0.00152            803.48932
        0.13838            0.00152            805.30408
        0.14040            0.00152            807.08185
        0.14242            0.00152            808.82391
        0.14444            0.00152            810.53156
        0.14646            0.00152            812.20599
        0.14848            0.00152            813.84833
        0.15050            0.00152            815.45941
        0.15253            0.00152            817.04053
        0.15455            0.00152            818.59271
        0.15657            0.00152            820.11700
        0.15859            0.00152            821.61414
        0.16061            0.00152            823.08508
        0.16263            0.00152            824.53064
        0.16465            0.00152            825.95172
        0.16667            0.00152            827.34912
        0.16869            0.00152            828.72369
        0.17071            0.00152            830.07599
        0.17273            0.00152            831.40686
        0.17475            0.00152            832.71692
        0.17677            0.00152            834.00684
        0.17879            0.00152            835.27716
        0.18081            0.00152            836.52856
        0.18283            0.00152            837.76154
        0.18485            0.00152            838.97662
        0.18687            0.00152            840.17419
        0.18889            0.00152            841.35492
        0.19091            0.00152            842.51910
        0.19293            0.00152            843.66736
        0.19495            0.00152            844.79968
        0.19697            0.00152            845.91687
        0.19899            0.00152            847.01904
        0.20000            0.00152            847.56049
        0.00000            0.00253            400.00000
        0.00101            0.00253            413.20859
        0.00303            0.00253            435.32904
        0.00505            0.00253            454.24792
        0.00707            0.00253            470.95471
        0.00909            0.00253            486.03931
        0.01111            0.00253            499.86560
        0.01313            0.00253            512.67456
        0.01515            0.00253            524.63574
        0.01717            0.00253            535.87372
        0.01919            0.00253            546.48383
        0.02121            0.00253            556.54083
        0.02323            0.00253            566.10474
        0.02525            0.00253            575.22491
        0.02727            0.00253            583.94214
        0.02929            0.00253            592.29095
        0.03131            0.00253            600.30084
        0.03333            0.00253            607.99707
        0.03535            0.00253            615.40173
        0.03737            0.00253            622.53424
        0.03939            0.00253            629.41162
        0.04141            0.00253            636.04907
        0.04343            0.00253            642.46033
        0.04545            0.00253            648.65753
        0.04747            0.00253            654.65179
        0.04949            0.00253            660.45312
        0.05152            0.00253            666.07086
        0.05354            0.00253            671.51355
        0.05556            0.00253            676.78888
        0.05758            0.00253            681.90411
        0.05960            0.00253            686.86597
        0.06162            0.00253            691.68079
        0.06364            0.00253            696.35419
        0.06566            0.00253            700.89191
        0.06768            0.00253            705.29913
        0.06970            0.00253            709.58069
        0.07172            0.00253            713.74127
        0.07374            0.00253            717.78540
        0.07576            0.00253            721.71710
        0.07778            0.00253            725.54047
        0.07980            0.00253            729.25909
        0.08182            0.00253            732.87683
        0.08384            0.00253            736.39697
        0.08586            0.00253            739.82312
        0.08788            0.00253            743.15820
        0.08990            0.00253            746.40546
        0.09192            0.00253            749.56775
        0.09394            0.00253            752.64795
        0.09596            0.00253            755.64905
        0.09798            0.00253            758.57336
        0.10000            0.00253            761.42371
        0.10202            0.00253            764.20239
        0.10404            0.00253            766.91199
        0.10606            0.00253            769.55463
        0.10808            0.00253            772.13263
        0.11010            0.00253            774.64813
        0.11212            0.00253            777.10339
        0.11414            0.00253            779.50012
        0.11616            0.00253            781.84045
        0.11818            0.00253            784.12628
        0.12020            0.00253            786.35931
        0.12222            0.00253            788.54163
        0.12424            0.00253            790.67474
        0.12626            0.00253            792.76044
        0.12828            0.00253            794.80035
        0.13030            0.00253            796.79584
        0.13232            0.00253            798.74860
        0.13434            0.00253            800.66003
        0.13636            0.00253            802.53143
        0.13838            0.00253            804.36426
        0.14040            0.00253            806.15985
        0.14242            0.00253            807.91931
        0.14444            0.00253            809.64398
        0.14646            0.00253            811.33514
        0.14848            0.00253            812.99371
        0.15050            0.00253            814.62097
        0.15253            0.00253            816.21783
        0.15455            0.00253            817.78552
        0.15657            0.00253            819.32501
        0.15859            0.00253            820.83710
        0.16061            0.00253            822.32263
        0.16263            0.00253            823.78259
        0.16465            0.00253            825.21783
        0.16667            0.00253            826.62921
        0.16869            0.00253            828.01740
        0.17071            0.00253            829.38312
        0.17273            0.00253            830.72723
        0.17475            0.00253            832.05029
        0.17677            0.00253            833.35309
        0.17879            0.00253            834.63605
        0.18081            0.00253            835.89990
        0.18283            0.00253            837.14508
        0.18485            0.00253            838.37225
        0.18687            0.00253            839.58173
        0.18889            0.00253            840.77417
        0.19091            0.00253            841.94989
        0.19293            0.00253            843.10944
        0.19495            0.00253            844.25311
        0.19697            0.00253            845.38129
        0.19899            0.00253            846.49432
        0.20000            0.00253            847.04114
        0.00000            0.00354            400.00000
        0.00101            0.00354            411.55658
        0.00303            0.00354            432.43591
        0.00505            0.00354            450.90961
        0.00707            0.00354            467.46027
        0.00909            0.00354            482.50674
        0.01111            0.00354            496.34930
        0.01313            0.00354            509.20190
        0.01515            0.00354            521.22119
        0.01717            0.00354            532.52509
        0.01919            0.00354            543.20508
        0.02121            0.00354            553.33368
        0.02323            0.00354            562.96991
        0.02525            0.00354            572.16199
        0.02727            0.00354            580.95026
        0.02929            0.00354            589.36890
        0.03131            0.00354            597.44739
        0.03333            0.00354            605.21063
        0.03535            0.00354            612.68060
        0.03737            0.00354            619.87695
        0.03939            0.00354            626.81647
        0.04141            0.00354            633.51440
        0.04343            0.00354            639.98450
        0.04545            0.00354            646.23907
        0.04747            0.00354            652.28906
        0.04949            0.00354            658.14471
        0.05152            0.00354            663.81519
        0.05354            0.00354            669.30920
        0.05556            0.00354            674.63440
        0.05758            0.00354            679.79816
        0.05960            0.00354            684.80725
        0.06162            0.00354            689.66797
        0.06364            0.00354            694.38605
        0.06566            0.00354            698.96722
        0.06768            0.00354            703.41669
        0.06970            0.00354            707.73950
        0.07172            0.00354            711.94012
        0.07374            0.00354            716.02325
        0.07576            0.00354            719.99286
        0.07778            0.00354            723.85309
        0.07980            0.00354            727.60767
        0.08182            0.00354            731.26044
        0.08384            0.00354            734.81464
        0.08586            0.00354            738.27393
        0.08788            0.00354            741.64130
        0.08990            0.00354            744.92004
        0.09192            0.00354            748.11298
        0.09394            0.00354            751.22308
        0.09596            0.00354            754.25323
        0.09798            0.00354            757.20599
        0.10000            0.00354            760.08398
        0.10202            0.00354            762.88971
        0.10404            0.00354            765.62561
        0.10606            0.00354            768.29395
        0.10808            0.00354            770.89697
        0.11010            0.00354            773.43689
        0.11212            0.00354            775.91595
        0.11414            0.00354            778.33600
        0.11616            0.00354            780.69904
        0.11818            0.00354            783.00714
        0.12020            0.00354            785.26184
        0.12222            0.00354            787.46533
        0.12424            0.00354            789.61914
        0.12626            0.00354            791.72510
        0.12828            0.00354            793.78485
        0.13030            0.00354            795.79974
        0.13232            0.00354            797.77142
        0.13434            0.00354            799.70142
        0.13636            0.00354            801.59100
        0.13838            0.00354            803.44153
        0.14040            0.00354            805.25464
        0.14242            0.00354            807.03113
        0.14444            0.00354            808.77258
        0.14646            0.00354            810.48004
        0.14848            0.00354            812.15479
        0.15050            0.00354            813.79785
        0.15253            0.00354            815.41016
        0.15455            0.00354            816.99310
        0.15657            0.00354            818.54742
        0.15859            0.00354            820.07410
        0.16061            0.00354            821.57410
        0.16263            0.00354            823.04810
        0.16465            0.00354            824.49731
        0.16667            0.00354            825.92230
        0.16869            0.00354            827.32397
        0.17071            0.00354            828.70294
        0.17273            0.00354            830.06000
        0.17475            0.00354            831.39594
        0.17677            0.00354            832.71124
        0.17879            0.00354            834.00653
        0.18081            0.00354            835.28259
        0.18283            0.00354            836.53979
        0.18485            0.00354            837.77887
        0.18687            0.00354            838.99994
        0.18889            0.00354            840.20386
        0.19091            0.00354            841.39093
        0.19293            0.00354            842.56165
        0.19495            0.00354            843.71637
        0.19697            0.00354            844.85547
        0.19899            0.00354            845.97919
        0.20000            0.00354            846.53125
        0.00000            0.00455            400.00000
        0.00101            0.00455            410.46317
        0.00303            0.00455            430.14441
        0.00505            0.00455            448.05255
        0.00707            0.00455            464.34262
        0.00909            0.00455            479.27603
        0.01111            0.00455            493.08154
        0.01313            0.00455            505.93890
        0.01515            0.00455            517.98688
        0.01717            0.00455            529.33398
        0.01919            0.00455            540.06592
        0.02121            0.00455            550.25171
        0.02323            0.00455            559.94824
        0.02525            0.00455            569.20227
        0.02727            0.00455            578.05328
        0.02929            0.00455            586.53467
        0.03131            0.00455            594.67548
        0.03333            0.00455            602.50043
        0.03535            0.00455            610.03119
        0.03737            0.00455            617.28717
        0.03939            0.00455            624.28516
        0.04141            0.00455            631.04041
        0.04343            0.00455            637.56653
        0.04545            0.00455            643.87579
        0.04747            0.00455            649.97919
        0.04949            0.00455            655.88690
        0.05152            0.00455            661.60822
        0.05354            0.00455            667.15161