 title="contour"
 variables="x","y","u","v",
 "p","den","mach","entropy","vmu",
 zone i=          88  j=          49  f=point
  3.8461499E-02  -1.500000       1.187662      5.9843389E-04   51.79656    
   5.800763      0.3540786       565340.0      0.0000000E+00
  0.1153845      -1.500000       1.257151      1.8970424E-03   50.53759    
   5.688073      0.3757319       565403.4      0.0000000E+00
  0.1923075      -1.500000       1.259325      3.7487019E-03   50.25577    
   5.662846      0.3765987       565408.2      0.0000000E+00
  0.2692305      -1.500000       1.249521      5.9991046E-03   50.30524    
   5.667245      0.3736306       565411.4      0.0000000E+00
  0.3461535      -1.500000       1.223279      8.6882766E-03   50.55113    
   5.689186      0.3656040       565415.5      0.0000000E+00
  0.4230765      -1.500000       1.189787      1.1883434E-02   50.81792    
   5.712976      0.3554089       565418.8      0.0000000E+00
  0.5000000      -1.500000       1.148817      1.5714360E-02   51.08880    
   5.737097      0.3429963       565423.1      0.0000000E+00
  0.5769235      -1.500000       1.094835      2.0436719E-02   51.44825    
   5.769197      0.3266715       565412.2      0.0000000E+00
  0.6538465      -1.500000       1.025509      2.6507370E-02   51.89214    
   5.809265      0.3057800       565339.0      0.0000000E+00
  0.7307695      -1.500000      0.9375064      3.4895957E-02   52.41258    
   5.855277      0.2793480       565360.8      0.0000000E+00
  0.8076925      -1.500000      0.8236243      4.8359215E-02   52.98264    
   5.899942      0.2452722       566063.8      0.0000000E+00
  0.8846154      -1.500000      0.6856806      7.5580366E-02   53.49036    
   5.936781      0.2047372       567023.6      0.0000000E+00
  0.9615384      -1.500000      0.4443733      0.1501113       53.42209    
   5.925354      0.1391630       567676.4      0.0000000E+00
   1.014434      -1.500000      0.3162071      0.3276353       55.75874    
   6.127731      0.1344749       567956.8      0.0000000E+00
   1.043301      -1.450000      0.4251549      0.5184518       54.16829    
   5.987412      0.1985867       568098.6      0.0000000E+00
   1.072169      -1.400000      0.5192899      0.6924289       53.29590    
   5.909142      0.2567472       568294.0      0.0000000E+00
   1.101037      -1.350000      0.6064751      0.8463889       52.42001    
   5.830517      0.3093653       568468.1      0.0000000E+00
   1.129904      -1.300000      0.7021375      0.9940571       51.42824    
   5.740644      0.3622374       568736.6      0.0000000E+00
   1.158772      -1.250000      0.8185482       1.149614       50.23029    
   5.630399      0.4209264       569228.0      0.0000000E+00
   1.187639      -1.200000      0.9746420       1.331047       48.63892    
   5.481133      0.4933682       570173.9      0.0000000E+00
   1.216506      -1.150000       1.205656       1.558943       46.32324    
   5.257586      0.5914840       572279.2      0.0000000E+00
   1.245374      -1.100000       1.593947       1.797841       42.98234    
   4.917680      0.7240139       577659.7      0.0000000E+00
   1.274241      -1.050000       2.550387       1.938736       36.05900    
   4.182021      0.9719453       594383.8      0.0000000E+00
   1.338184      -1.000000       3.737081       1.674357       12.50013    
   1.681908       1.338183       649237.5      0.0000000E+00
   1.437204      -1.026647       3.807071      0.8287297       6.566965    
  0.9439209       1.315965       706229.5      0.0000000E+00
   1.536222      -1.053294       3.491604     -0.3814218       7.213428    
   1.000209       1.165172       721153.2      0.0000000E+00
   1.635241      -1.079941       2.987903     -0.8306158       9.172194    
   1.206028       1.001815       724373.8      0.0000000E+00
   1.734260      -1.106588       2.795753     -0.8194191       11.01043    
   1.413351      0.9298912       712015.5      0.0000000E+00
   1.833279      -1.133235       2.749373     -0.7945859       12.18034    
   1.538145      0.9060175       708015.9      0.0000000E+00
   1.932297      -1.159882       2.745333     -0.7732272       12.90929    
   1.623926      0.9011941       700791.8      0.0000000E+00
   2.031317      -1.186529       2.764357     -0.7694069       13.39558    
   1.682183      0.9058722       695602.8      0.0000000E+00
   2.130336      -1.213175       2.806166     -0.7737915       13.63432    
   1.712300      0.9189983       692345.6      0.0000000E+00
   2.229354      -1.239822       2.863391     -0.7841842       13.71064    
   1.732583      0.9401956       685967.2      0.0000000E+00
   2.328373      -1.266469       2.924395     -0.7985642       13.71845    
   1.742187      0.9624150       681593.7      0.0000000E+00
   2.427392      -1.293116       2.990545     -0.8137583       13.67237    
   1.740088      0.9850079       680337.2      0.0000000E+00
   2.526410      -1.319763       3.066801     -0.8300617       13.53828    
   1.729696       1.011709       678768.1      0.0000000E+00
   2.625429      -1.346410       3.153763     -0.8486356       13.30293    
   1.708619       1.042732       677351.6      0.0000000E+00
   2.724448      -1.373057       3.246862     -0.8689011       12.99121    
   1.678837       1.076410       676299.0      0.0000000E+00
   2.823467      -1.399704       3.340449     -0.8881513       12.63914    
   1.644143       1.110613       675513.1      0.0000000E+00
   2.922486      -1.426351       3.432061     -0.9067088       12.26842    
   1.606688       1.144436       675017.3      0.0000000E+00
   3.021504      -1.452998       3.521338     -0.9245639       11.88646    
   1.567296       1.177736       674780.1      0.0000000E+00
   3.120523      -1.479645       3.608199     -0.9417844       11.49736    
   1.526523       1.210513       674733.1      0.0000000E+00
   3.219542      -1.506292       3.692566     -0.9585302       11.10560    
   1.484955       1.242765       674812.7      0.0000000E+00
   3.318561      -1.532939       3.774430     -0.9749205       10.71526    
   1.443151       1.274516       674947.4      0.0000000E+00
   3.417580      -1.559586       3.853804     -0.9910735       10.33019    
   1.401692       1.305818       675034.8      0.0000000E+00
   3.516599      -1.586233       3.930569      -1.007092       9.954281    
   1.361166       1.336681       674965.9      0.0000000E+00
   3.615617      -1.612880       4.004556      -1.022868       9.590749    
   1.321885       1.366986       674758.4      0.0000000E+00
   3.714636      -1.639526       4.075438      -1.038040       9.240273    
   1.283699       1.396458       674560.5      0.0000000E+00
   3.813655      -1.666173       4.143036      -1.052626       8.904065    
   1.246637       1.424928       674459.4      0.0000000E+00
   3.912674      -1.692820       4.207595      -1.066722       8.582330    
   1.210766       1.452455       674449.4      0.0000000E+00
   4.011693      -1.719467       4.269486      -1.080267       8.274083    
   1.176067       1.479181       674490.1      0.0000000E+00
   4.110712      -1.746114       4.328936      -1.093354       7.978971    
   1.142458       1.505118       674634.1      0.0000000E+00
   4.209730      -1.772761       4.386157      -1.105978       7.696292    
   1.109886       1.530321       674886.4      0.0000000E+00
   4.308749      -1.799408       4.441249      -1.118205       7.425668    
   1.078359       1.554821       675232.8      0.0000000E+00
   4.407768      -1.826055       4.494294      -1.130082       7.166987    
   1.047922       1.578648       675650.4      0.0000000E+00
   4.506787      -1.852702       4.545395      -1.141642       6.919870    
   1.018583       1.601840       676118.1      0.0000000E+00
   4.605806      -1.879349       4.594652      -1.152900       6.683979    
  0.9903433       1.624432       676620.1      0.0000000E+00
   4.704825      -1.905996       4.642149      -1.163876       6.458869    
  0.9631846       1.646449       677146.2      0.0000000E+00
   4.803843      -1.932643       4.687979      -1.174570       6.244166    
  0.9370911       1.667918       677687.2      0.0000000E+00
   4.902863      -1.959290       4.732248      -1.184981       6.039337    
  0.9120212       1.688869       678239.4      0.0000000E+00
   5.001881      -1.985937       4.775021      -1.195123       5.843866    
  0.8879321       1.709321       678799.8      0.0000000E+00
   5.100900      -2.012584       4.816392      -1.204985       5.657384    
  0.8647961       1.729294       679366.8      0.0000000E+00
   5.199919      -2.039230       4.856462      -1.214584       5.479232    
  0.8425449       1.748823       679942.9      0.0000000E+00
   5.298938      -2.065877       4.895285      -1.223938       5.309042    
  0.8211467       1.767917       680527.9      0.0000000E+00
   5.397956      -2.092524       4.932913      -1.233054       5.146416    
  0.8005644       1.786589       681122.9      0.0000000E+00
   5.496975      -2.119171       4.969413      -1.241937       4.990949    
  0.7807575       1.804855       681730.5      0.0000000E+00
   5.595994      -2.145818       5.004841      -1.250588       4.842227    
  0.7616829       1.822726       682353.8      0.0000000E+00
   5.695013      -2.172465       5.039246      -1.259013       4.699895    
  0.7433064       1.840214       682993.5      0.0000000E+00
   5.794032      -2.199112       5.072668      -1.267217       4.563582    
  0.7255912       1.857332       683650.2      0.0000000E+00
   5.893050      -2.225759       5.105155      -1.275200       4.432984    
  0.7085075       1.874090       684324.4      0.0000000E+00
   5.992070      -2.252406       5.136759      -1.282990       4.307731    
  0.6920211       1.890514       685012.0      0.0000000E+00
   6.091088      -2.279053       5.167515      -1.290614       4.187526    
  0.6761059       1.906622       685707.6      0.0000000E+00
   6.190107      -2.305700       5.197462      -1.298065       4.072164    
  0.6607456       1.922425       686407.4      0.0000000E+00
   6.289125      -2.332347       5.226646      -1.305351       3.961340    
  0.6459128       1.937950       687104.9      0.0000000E+00
   6.388144      -2.358994       5.255055      -1.312486       3.854913    
  0.6315978       1.953191       687795.7      0.0000000E+00
   6.487163      -2.385641       5.282628      -1.319477       3.752847    
  0.6178073       1.968124       688471.6      0.0000000E+00
   6.586182      -2.412288       5.309199      -1.326329       3.655161    
  0.6045546       1.982687       689124.6      0.0000000E+00
   6.685201      -2.438935       5.334688      -1.333000       3.561838    
  0.5918498       1.996843       689743.6      0.0000000E+00
   6.784220      -2.465581       5.359464      -1.339429       3.472228    
  0.5796050       2.010732       690337.9      0.0000000E+00
   6.883238      -2.492228       5.384539      -1.345554       3.384387    
  0.5675317       2.024752       690959.2      0.0000000E+00
   6.982257      -2.518875       5.412706      -1.350891       3.295985    
  0.5553299       2.040016       691593.4      0.0000000E+00
   7.081276      -2.545522       5.444547      -1.357557       3.203231    
  0.5426235       2.057448       692022.2      0.0000000E+00
   7.180295      -2.572169       5.479158      -1.366769       3.115133    
  0.5303248       2.075723       692713.7      0.0000000E+00
   7.279314      -2.598816       5.504582      -1.374598       3.049567    
  0.5202602       2.087691       694704.6      0.0000000E+00
   7.378333      -2.625463       5.504931      -1.385787       2.991865    
  0.5127722       2.093631       694124.2      0.0000000E+00
   7.477352      -2.652110       5.497305      -1.397384       2.966514    
  0.5109901       2.097219       691268.2      0.0000000E+00
   7.576370      -2.678757       5.480396      -1.410016       2.966637    
  0.5118178       2.093970       689888.6      0.0000000E+00
   7.675389      -2.705404       5.435782      -1.411332       2.979791    
  0.5154102       2.080781       686867.5      0.0000000E+00
  3.8461499E-02  -1.438776       1.188484      2.3756817E-03   51.77804    
   5.799095      0.3543367       565342.7      0.0000000E+00
  0.1153845      -1.438776       1.258113      7.0167636E-03   50.50780    
   5.685393      0.3760470       565405.7      0.0000000E+00
  0.1923075      -1.438776       1.260236      1.3003225E-02   50.22181    
   5.659796      0.3769153       565409.8      0.0000000E+00
  0.2692305      -1.438776       1.250578      2.0020926E-02   50.26744    
   5.663856      0.3740191       565412.5      0.0000000E+00
  0.3461535      -1.438776       1.224625      2.8434742E-02   50.50626    
   5.685171      0.3661287       565416.3      0.0000000E+00
  0.4230765      -1.438776       1.191472      3.8424965E-02   50.76556    
   5.708299      0.3561173       565419.4      0.0000000E+00
  0.5000000      -1.438776       1.150983      5.0414689E-02   51.02666    
   5.731554      0.3439835       565423.6      0.0000000E+00
  0.5769235      -1.438776       1.097759      6.5285638E-02   51.37130    
   5.762351      0.3281164       565411.9      0.0000000E+00
  0.6538465      -1.438776       1.029509      8.4457546E-02   51.79391    
   5.800528      0.3079609       565339.9      0.0000000E+00
  0.7307695      -1.438776      0.9429746      0.1103899       52.28716    
   5.844091      0.2827687       565368.5      0.0000000E+00
  0.8076925      -1.438776      0.8312492      0.1480047       52.82815    
   5.886548      0.2510850       566031.9      0.0000000E+00
  0.8846154      -1.438776      0.7013465      0.2050809       53.34458    
   5.924976      0.2169508       566898.3      0.0000000E+00
  0.9615384      -1.438776      0.5021847      0.3026431       53.18044    
   5.906259      0.1740751       567411.6      0.0000000E+00
   1.014434      -1.438776      0.4090235      0.4327756       53.94357    
   5.972048      0.1765114       567576.4      0.0000000E+00
   1.043301      -1.390816      0.4892569      0.5715747       52.51442    
   5.845114      0.2236181       567700.6      0.0000000E+00
   1.072169      -1.342857      0.5670210      0.7213224       51.60126    
   5.762830      0.2731567       567883.4      0.0000000E+00
   1.101037      -1.294898      0.6521831      0.8693910       50.65208    
   5.677289      0.3241494       568040.9      0.0000000E+00
   1.129904      -1.246939      0.7527255       1.019191       49.47956    
   5.571007      0.3787502       568262.9      0.0000000E+00
   1.158772      -1.198980      0.8773907       1.180016       47.93508    
   5.429663      0.4408873       568642.8      0.0000000E+00
   1.187639      -1.151020       1.046219       1.365561       45.80241    
   5.231877      0.5179598       569350.7      0.0000000E+00
   1.216506      -1.103061       1.304406       1.594694       42.71519    
   4.939707      0.6241494       570845.9      0.0000000E+00
   1.245374      -1.055102       1.737463       1.794679       38.00652    
   4.485149      0.7644591       573613.3      0.0000000E+00
   1.274241      -1.007143       2.612983       1.813801       29.97042    
   3.674715      0.9922428       581448.2      0.0000000E+00
   1.337755     -0.9591839       3.602801       1.307535       17.22643    
   2.223839       1.226809       629281.5      0.0000000E+00
   1.435916     -0.9849730       3.712151      0.2493939       10.40699    
   1.385615       1.209419       690010.4      0.0000000E+00
   1.534078      -1.010762       3.598634     -0.7258808       9.515289    
   1.272950       1.196209       702036.4      0.0000000E+00
   1.632239      -1.036551       3.361069      -1.009322       9.756351    
   1.295239       1.139127       704249.7      0.0000000E+00
   1.730400      -1.062340       3.110312     -0.9836511       10.71944    
   1.398586       1.049729       702430.9      0.0000000E+00
   1.828561      -1.088129       2.973606     -0.8962431       11.83600    
   1.525347      0.9932552       695280.9      0.0000000E+00
   1.926722      -1.113919       2.905741     -0.8463836       12.66278    
   1.616610      0.9633704       691331.6      0.0000000E+00
   2.024883      -1.139708       2.900748     -0.8358771       13.25249    
   1.681139      0.9578538       688710.9      0.0000000E+00
   2.123044      -1.165497       2.919539     -0.8353022       13.57423    
   1.717746      0.9623567       686541.3      0.0000000E+00
   2.221205      -1.191286       2.960993     -0.8433595       13.71359    
   1.743570      0.9779888       680671.7      0.0000000E+00
   2.319366      -1.217075       3.014071     -0.8544939       13.73822    
   1.755331      0.9976299       676142.2      0.0000000E+00
   2.417527      -1.242864       3.073059     -0.8647900       13.70431    
   1.754663       1.017661       674796.7      0.0000000E+00
   2.515688      -1.268653       3.140971     -0.8748457       13.59730    
   1.747318       1.041268       673075.9      0.0000000E+00
   2.613849      -1.294443       3.219020     -0.8871986       13.40074    
   1.730545       1.068966       671457.4      0.0000000E+00
   2.712010      -1.320232       3.304708     -0.9024321       13.12334    
   1.704807       1.099970       670090.4      0.0000000E+00
   2.810171      -1.346021       3.393617     -0.9195424       12.79377    
   1.673298       1.132791       668800.1      0.0000000E+00
   2.908332      -1.371810       3.482451     -0.9363718       12.43876    
   1.638552       1.166001       667662.9      0.0000000E+00
   3.006494      -1.397599       3.569999     -0.9521497       12.06919    
   1.601554       1.199047       666738.6      0.0000000E+00
   3.104654      -1.423388       3.655678     -0.9673941       11.69155    
   1.562957       1.231736       666037.7      0.0000000E+00
   3.202815      -1.449177       3.739252     -0.9823925       11.30935    
   1.523157       1.263999       665548.1      0.0000000E+00
   3.300976      -1.474967       3.820642     -0.9973547       10.92530    
   1.482476       1.295815       665255.8      0.0000000E+00
   3.399137      -1.500756       3.899700      -1.012412       10.54169    
   1.441222       1.327148       665134.6      0.0000000E+00
   3.497298      -1.526545       3.975912      -1.027600       10.16273    
   1.399969       1.357835       665121.7      0.0000000E+00
   3.595459      -1.552334       4.048706      -1.042607       9.795254    
   1.359625       1.387635       665131.6      0.0000000E+00
   3.693620      -1.578123       4.118029      -1.057075       9.444760    
   1.320927       1.416461       665094.8      0.0000000E+00
   3.791781      -1.603912       4.184217      -1.070929       9.110811    
   1.283856       1.444398       665007.1      0.0000000E+00
   3.889942      -1.629702       4.247639      -1.084196       8.791221    
   1.248120       1.471538       664914.9      0.0000000E+00
   3.988103      -1.655491       4.308577      -1.096956       8.484206    
   1.213457       1.497937       664875.4      0.0000000E+00
   4.086265      -1.681280       4.367456      -1.108917       8.188898    
   1.179835       1.523728       664860.5      0.0000000E+00
   4.184425      -1.707069       4.424366      -1.120208       7.905347    
   1.147282       1.548933       664869.5      0.0000000E+00
   4.282587      -1.732858       4.479295      -1.131052       7.633604    
   1.115806       1.573533       664917.2      0.0000000E+00
   4.380748      -1.758647       4.532266      -1.141591       7.373467    
   1.085395       1.597517       665014.2      0.0000000E+00
   4.478909      -1.784436       4.583337      -1.151901       7.124556    
   1.056026       1.620895       665162.8      0.0000000E+00
   4.577070      -1.810226       4.632586      -1.162008       6.886475    
   1.027678       1.643683       665360.8      0.0000000E+00
   4.675231      -1.836015       4.680098      -1.171922       6.658838    
   1.000335       1.665901       665602.6      0.0000000E+00
   4.773392      -1.861804       4.725949      -1.181638       6.441250    
  0.9739792       1.687568       665882.4      0.0000000E+00
   4.871553      -1.887593       4.770229      -1.191147       6.233315    
  0.9485878       1.708706       666195.0      0.0000000E+00
   4.969714      -1.913382       4.813016      -1.200457       6.034588    
  0.9241326       1.729340       666534.1      0.0000000E+00
   5.067875      -1.939171       4.854388      -1.209555       5.844676    
  0.9005869       1.749489       666896.1      0.0000000E+00
   5.166036      -1.964960       4.894427      -1.218454       5.663126    
  0.8779142       1.769179       667277.6      0.0000000E+00
   5.264197      -1.990750       4.933207      -1.227160       5.489511    
  0.8560792       1.788429       667676.6      0.0000000E+00
   5.362358      -2.016539       4.970796      -1.235673       5.323421    
  0.8350456       1.807261       668091.5      0.0000000E+00
   5.460519      -2.042328       5.007255      -1.243992       5.164470    
  0.8147777       1.825687       668523.1      0.0000000E+00
   5.558681      -2.068117       5.042634      -1.252117       5.012286    
  0.7952394       1.843721       668972.8      0.0000000E+00
   5.656841      -2.093906       5.076995      -1.260049       4.866520    
  0.7763977       1.861377       669441.1      0.0000000E+00
   5.755003      -2.119695       5.110377      -1.267793       4.726824    
  0.7582195       1.878666       669927.4      0.0000000E+00
   5.853163      -2.145485       5.142831      -1.275345       4.592898    
  0.7406769       1.895602       670431.6      0.0000000E+00
   5.951324      -2.171274       5.174401      -1.282723       4.464379    
  0.7237342       1.912205       670951.9      0.0000000E+00
   6.049485      -2.197063       5.205118      -1.289956       4.340957    
  0.7073630       1.928487       671484.6      0.0000000E+00
   6.147646      -2.222852       5.235013      -1.297050       4.222401    
  0.6915436       1.944462       672027.1      0.0000000E+00
   6.245808      -2.248641       5.264138      -1.304006       4.108459    
  0.6762540       1.960150       672574.8      0.0000000E+00
   6.343968      -2.274430       5.292517      -1.310818       3.998893    
  0.6614729       1.975563       673123.1      0.0000000E+00
   6.442130      -2.300219       5.320166      -1.317471       3.893560    
  0.6471898       1.990702       673669.6      0.0000000E+00
   6.540291      -2.326009       5.347014      -1.323953       3.792402    
  0.6334058       2.005538       674209.7      0.0000000E+00
   6.638451      -2.351798       5.372914      -1.330244       3.695505    
  0.6201442       2.020006       674734.5      0.0000000E+00
   6.736612      -2.377587       5.397784      -1.336406       3.602999    
  0.6074338       2.034072       675235.8      0.0000000E+00
   6.834774      -2.403376       5.421674      -1.342718       3.514291    
  0.5951970       2.047791       675717.6      0.0000000E+00
   6.932935      -2.429165       5.445790      -1.349237       3.428509    
  0.5833504       2.061693       676136.1      0.0000000E+00
   7.031096      -2.454954       5.471862      -1.357051       3.342108    
  0.5714912       2.076853       676376.4      0.0000000E+00
   7.129257      -2.480743       5.500772      -1.366070       3.251968    
  0.5589529       2.093381       676789.1      0.0000000E+00
   7.227418      -2.506533       5.533262      -1.372603       3.165422    
  0.5464026       2.110104       677899.8      0.0000000E+00
   7.325579      -2.532322       5.558745      -1.377447       3.094862    
  0.5363551       2.123916       678470.9      0.0000000E+00
   7.423740      -2.558111       5.559443      -1.378739       3.030865    
  0.5274819       2.128763       678554.9      0.0000000E+00
   7.521901      -2.583900       5.549103      -1.375708       2.993633    
  0.5223558       2.127520       678517.2      0.0000000E+00
   7.620062      -2.609689       5.514160      -1.355932       2.974247    
  0.5203948       2.116024       677325.5      0.0000000E+00
  3.8461499E-02  -1.377551       1.190375      4.1278182E-03   51.74185    
   5.795821      0.3549257       565349.7      0.0000000E+00
  0.1153845      -1.377551       1.260569      1.1793940E-02   50.45883    
   5.680967      0.3768279       565412.1      0.0000000E+00
  0.1923075      -1.377551       1.262824      2.1443319E-02   50.17012    
   5.655131      0.3777627       565415.0      0.0000000E+00
  0.2692305      -1.377551       1.253626      3.2903112E-02   50.20881    
   5.658575      0.3750558       565417.2      0.0000000E+00
  0.3461535      -1.377551       1.228499      4.6746846E-02   50.43576    
   5.678839      0.3675059       565420.4      0.0000000E+00
  0.4230765      -1.377551       1.196345      6.3167103E-02   50.68381    
   5.700975      0.3579444       565422.8      0.0000000E+00
  0.5000000      -1.377551       1.157254      8.2857899E-02   50.92943    
   5.722862      0.3464783       565426.4      0.0000000E+00
  0.5769235      -1.377551       1.106175      0.1072798       51.24985    
   5.751541      0.3316783       565411.3      0.0000000E+00
  0.6538465      -1.377551       1.041081      0.1387558       51.63658    
   5.786629      0.3132254       565328.9      0.0000000E+00
  0.7307695      -1.377551      0.9595571      0.1812466       52.07445    
   5.825282      0.2909672       565360.2      0.0000000E+00
  0.8076925      -1.377551      0.8570910      0.2414142       52.51682    
   5.859680      0.2649768       565948.9      0.0000000E+00
  0.8846154      -1.377551      0.7438661      0.3271409       52.90331    
   5.888284      0.2415224       566626.8      0.0000000E+00
  0.9615384      -1.377551      0.5970547      0.4470686       52.48011    
   5.848253      0.2218209       566946.0      0.0000000E+00
   1.014434      -1.377551      0.5470328      0.5631572       53.24753    
   5.915860      0.2331321       566965.9      0.0000000E+00
   1.043301      -1.331633      0.6170835      0.6624517       52.09102    
   5.813055      0.2694298       567039.5      0.0000000E+00
   1.072169      -1.285714      0.6908552      0.7752320       51.27475    
   5.739279      0.3094956       567209.2      0.0000000E+00
   1.101037      -1.239796      0.7798771      0.9031534       50.31369    
   5.652722      0.3563193       567337.5      0.0000000E+00
   1.129904      -1.193878      0.8939753       1.045024       49.00926    
   5.535285      0.4117391       567442.5      0.0000000E+00
   1.158772      -1.147959       1.041318       1.202611       47.26342    
   5.377349      0.4780239       567556.5      0.0000000E+00
   1.187639      -1.102041       1.242107       1.376973       44.91446    
   5.162766      0.5601079       567746.3      0.0000000E+00
   1.216506      -1.056122       1.542995       1.551599       41.73854    
   4.868491      0.6657844       568094.2      0.0000000E+00
   1.245374      -1.010204       2.037619       1.646125       36.75156    
   4.407706      0.8081582       566980.2      0.0000000E+00
   1.274241     -0.9642860       2.764091       1.578313       29.70666    
   3.720530       1.003511       567403.1      0.0000000E+00
   1.337327     -0.9183671       3.566911       1.219225       22.02050    
   2.808025       1.199193       599572.8      0.0000000E+00
   1.434630     -0.9432991       3.857762      0.3191197       14.44635    
   1.888113       1.246711       648578.9      0.0000000E+00
   1.531933     -0.9682299       3.862548     -0.5660344       10.93930    
   1.488768       1.282984       662563.6      0.0000000E+00
   1.629237     -0.9931610       3.811868     -0.9998862       10.43717    
   1.423267       1.296444       669024.2      0.0000000E+00
   1.726540      -1.018093       3.696260      -1.108866       10.75646    
   1.449577       1.262048       673760.4      0.0000000E+00
   1.823843      -1.043024       3.526504      -1.089924       11.58080    
   1.537892       1.198294       673305.4      0.0000000E+00
   1.921146      -1.067956       3.384098      -1.027945       12.50770    
   1.642632       1.141836       669262.8      0.0000000E+00
   2.018450      -1.092887       3.319874     -0.9809742       13.17703    
   1.711354       1.111410       669590.8      0.0000000E+00
   2.115753      -1.117818       3.295107     -0.9584435       13.50949    
   1.749122       1.100045       667860.4      0.0000000E+00
   2.213056      -1.142750       3.304076     -0.9562955       13.69102    
   1.778248       1.104362       662896.1      0.0000000E+00
   2.310359      -1.167681       3.326183     -0.9582535       13.72499    
   1.791046       1.113967       658563.2      0.0000000E+00
   2.407663      -1.192612       3.358988     -0.9605659       13.69703    
   1.791008       1.125454       657238.9      0.0000000E+00
   2.504966      -1.217544       3.402249     -0.9610527       13.60344    
   1.785501       1.141055       655286.0      0.0000000E+00
   2.602269      -1.242475       3.456276     -0.9616642       13.42344    
   1.771560       1.161077       653033.4      0.0000000E+00
   2.699572      -1.267406       3.519120     -0.9646813       13.16284    
   1.748690       1.184852       650925.5      0.0000000E+00
   2.796875      -1.292338       3.587957     -0.9722710       12.84489    
   1.718738       1.211403       649181.4      0.0000000E+00
   2.894179      -1.317269       3.660721     -0.9819691       12.49028    
   1.684284       1.239913       647573.3      0.0000000E+00
   2.991482      -1.342201       3.734867     -0.9912056       12.11827    
   1.647258       1.269200       646131.8      0.0000000E+00
   3.088785      -1.367132       3.808818     -0.9998519       11.73963    
   1.608681       1.298625       644914.6      0.0000000E+00