title="2D heat conduction problem"
variables="x","y","T"
zone i=315, j=315, f=point
0,0,0
0,0.01,0
0,0.02,0
0,0.03,0
0,0.04,0
0,0.05,0
0,0.06,0
0,0.07,0
0,0.08,0
0,0.09,0
0,0.1,0
0,0.11,0
0,0.12,0
0,0.13,0
0,0.14,0
0,0.15,0
0,0.16,0
0,0.17,0
0,0.18,0
0,0.19,0
0,0.2,0
0,0.21,0
0,0.22,0
0,0.23,0
0,0.24,0
0,0.25,0
0,0.26,0
0,0.27,0
0,0.28,0
0,0.29,0
0,0.3,0
0,0.31,0
0,0.32,0
0,0.33,0
0,0.34,0
0,0.35,0
0,0.36,0
0,0.37,0
0,0.38,0
0,0.39,0
0,0.4,0
0,0.41,0
0,0.42,0
0,0.43,0
0,0.44,0
0,0.45,0
0,0.46,0
0,0.47,0
0,0.48,0
0,0.49,0
0,0.5,0
0,0.51,0
0,0.52,0
0,0.53,0
0,0.54,0
0,0.55,0
0,0.56,0
0,0.57,0
0,0.58,0
0,0.59,0
0,0.6,0
0,0.61,0
0,0.62,0
0,0.63,0
0,0.64,0
0,0.65,0
0,0.66,0
0,0.67,0
0,0.68,0
0,0.69,0
0,0.7,0
0,0.71,0
0,0.72,0
0,0.73,0
0,0.74,0
0,0.75,0
0,0.76,0
0,0.77,0
0,0.78,0
0,0.79,0
0,0.8,0
0,0.81,0
0,0.82,0
0,0.83,0
0,0.84,0
0,0.85,0
0,0.86,0
0,0.87,0
0,0.88,0
0,0.89,0
0,0.9,0
0,0.91,0
0,0.92,0
0,0.93,0
0,0.94,0
0,0.95,0
0,0.96,0
0,0.97,0
0,0.98,0
0,0.99,0
0,1,0
0,1.01,0
0,1.02,0
0,1.03,0
0,1.04,0
0,1.05,0
0,1.06,0
0,1.07,0
0,1.08,0
0,1.09,0
0,1.1,0
0,1.11,0
0,1.12,0
0,1.13,0
0,1.14,0
0,1.15,0
0,1.16,0
0,1.17,0
0,1.18,0
0,1.19,0
0,1.2,0
0,1.21,0
0,1.22,0
0,1.23,0
0,1.24,0
0,1.25,0
0,1.26,0
0,1.27,0
0,1.28,0
0,1.29,0
0,1.3,0
0,1.31,0
0,1.32,0
0,1.33,0
0,1.34,0
0,1.35,0
0,1.36,0
0,1.37,0
0,1.38,0
0,1.39,0
0,1.4,0
0,1.41,0
0,1.42,0
0,1.43,0
0,1.44,0
0,1.45,0
0,1.46,0
0,1.47,0
0,1.48,0
0,1.49,0
0,1.5,0
0,1.51,0
0,1.52,0
0,1.53,0
0,1.54,0
0,1.55,0
0,1.56,0
0,1.57,0
0,1.58,0
0,1.59,0
0,1.6,0
0,1.61,0
0,1.62,0
0,1.63,0
0,1.64,0
0,1.65,0
0,1.66,0
0,1.67,0
0,1.68,0
0,1.69,0
0,1.7,0
0,1.71,0
0,1.72,0
0,1.73,0
0,1.74,0
0,1.75,0
0,1.76,0
0,1.77,0
0,1.78,0
0,1.79,0
0,1.8,0
0,1.81,0
0,1.82,0
0,1.83,0
0,1.84,0
0,1.85,0
0,1.86,0
0,1.87,0
0,1.88,0
0,1.89,0
0,1.9,0
0,1.91,0
0,1.92,0
0,1.93,0
0,1.94,0
0,1.95,0
0,1.96,0
0,1.97,0
0,1.98,0
0,1.99,0
0,2,0
0,2.01,0
0,2.02,0
0,2.03,0
0,2.04,0
0,2.05,0
0,2.06,0
0,2.07,0
0,2.08,0
0,2.09,0
0,2.1,0
0,2.11,0
0,2.12,0
0,2.13,0
0,2.14,0
0,2.15,0
0,2.16,0
0,2.17,0
0,2.18,0
0,2.19,0
0,2.2,0
0,2.21,0
0,2.22,0
0,2.23,0
0,2.24,0
0,2.25,0
0,2.26,0
0,2.27,0
0,2.28,0
0,2.29,0
0,2.3,0
0,2.31,0
0,2.32,0
0,2.33,0
0,2.34,0
0,2.35,0
0,2.36,0
0,2.37,0
0,2.38,0
0,2.39,0
0,2.4,0
0,2.41,0
0,2.42,0
0,2.43,0
0,2.44,0
0,2.45,0
0,2.46,0
0,2.47,0
0,2.48,0
0,2.49,0
0,2.5,0
0,2.51,0
0,2.52,0
0,2.53,0
0,2.54,0
0,2.55,0
0,2.56,0
0,2.57,0
0,2.58,0
0,2.59,0
0,2.6,0
0,2.61,0
0,2.62,0
0,2.63,0
0,2.64,0
0,2.65,0
0,2.66,0
0,2.67,0
0,2.68,0
0,2.69,0
0,2.7,0
0,2.71,0
0,2.72,0
0,2.73,0
0,2.74,0
0,2.75,0
0,2.76,0
0,2.77,0
0,2.78,0
0,2.79,0
0,2.8,0
0,2.81,0
0,2.82,0
0,2.83,0
0,2.84,0
0,2.85,0
0,2.86,0
0,2.87,0
0,2.88,0
0,2.89,0
0,2.9,0
0,2.91,0
0,2.92,0
0,2.93,0
0,2.94,0
0,2.95,0
0,2.96,0
0,2.97,0
0,2.98,0
0,2.99,0
0,3,0
0,3.01,0
0,3.02,0
0,3.03,0
0,3.04,0
0,3.05,0
0,3.06,0
0,3.07,0
0,3.08,0
0,3.09,0
0,3.1,0
0,3.11,0
0,3.12,0
0,3.13,0
0,3.14,0
0.01,0,0
0.01,0.01,0.0081198
0.01,0.02,0.016239
0.01,0.03,0.024356
0.01,0.04,0.032471
0.01,0.05,0.040583
0.01,0.06,0.048691
0.01,0.07,0.056793
0.01,0.08,0.064891
0.01,0.09,0.072981
0.01,0.1,0.081065
0.01,0.11,0.08914
0.01,0.12,0.097206
0.01,0.13,0.10526
0.01,0.14,0.11331
0.01,0.15,0.12134
0.01,0.16,0.12937
0.01,0.17,0.13738
0.01,0.18,0.14537
0.01,0.19,0.15335
0.01,0.2,0.16132
0.01,0.21,0.16927
0.01,0.22,0.1772
0.01,0.23,0.18512
0.01,0.24,0.19301
0.01,0.25,0.20089
0.01,0.26,0.20875
0.01,0.27,0.21659
0.01,0.28,0.2244
0.01,0.29,0.23219
0.01,0.3,0.23996
0.01,0.31,0.24771
0.01,0.32,0.25543
0.01,0.33,0.26312
0.01,0.34,0.27079
0.01,0.35,0.27843
0.01,0.36,0.28605
0.01,0.37,0.29363
0.01,0.38,0.30119
0.01,0.39,0.30871
0.01,0.4,0.31621
0.01,0.41,0.32367
0.01,0.42,0.3311
0.01,0.43,0.3385
0.01,0.44,0.34586
0.01,0.45,0.35319
0.01,0.46,0.36049
0.01,0.47,0.36774
0.01,0.48,0.37496
0.01,0.49,0.38215
0.01,0.5,0.38929
0.01,0.51,0.3964
0.01,0.52,0.40347
0.01,0.53,0.41049
0.01,0.54,0.41748
0.01,0.55,0.42442
0.01,0.56,0.43132
0.01,0.57,0.43818
0.01,0.58,0.44499
0.01,0.59,0.45176
0.01,0.6,0.45849
0.01,0.61,0.46517
0.01,0.62,0.4718
0.01,0.63,0.47838
0.01,0.64,0.48492
0.01,0.65,0.49141
0.01,0.66,0.49785
0.01,0.67,0.50424
0.01,0.68,0.51058
0.01,0.69,0.51687
0.01,0.7,0.5231
0.01,0.71,0.52929
0.01,0.72,0.53542
0.01,0.73,0.5415
0.01,0.74,0.54752
0.01,0.75,0.55349
0.01,0.76,0.5594
0.01,0.77,0.56526
0.01,0.78,0.57106
0.01,0.79,0.57681
0.01,0.8,0.58249
0.01,0.81,0.58812
0.01,0.82,0.59369
0.01,0.83,0.5992
0.01,0.84,0.60465
0.01,0.85,0.61004
0.01,0.86,0.61537
0.01,0.87,0.62063
0.01,0.88,0.62584
0.01,0.89,0.63098
0.01,0.9,0.63606
0.01,0.91,0.64108
0.01,0.92,0.64603
0.01,0.93,0.65091
0.01,0.94,0.65574
0.01,0.95,0.66049
0.01,0.96,0.66518
0.01,0.97,0.66981
0.01,0.98,0.67436
0.01,0.99,0.67885
0.01,1,0.68327
0.01,1.01,0.68763
0.01,1.02,0.69191
0.01,1.03,0.69613
0.01,1.04,0.70027
0.01,1.05,0.70435
0.01,1.06,0.70835
0.01,1.07,0.71229
0.01,1.08,0.71615
0.01,1.09,0.71994
0.01,1.1,0.72366
0.01,1.11,0.72731
0.01,1.12,0.73088
0.01,1.13,0.73438
0.01,1.14,0.73781
0.01,1.15,0.74116
0.01,1.16,0.74444
0.01,1.17,0.74765
0.01,1.18,0.75078
0.01,1.19,0.75383
0.01,1.2,0.75681
0.01,1.21,0.75972
0.01,1.22,0.76255
0.01,1.23,0.7653
0.01,1.24,0.76797
0.01,1.25,0.77057
0.01,1.26,0.7731
0.01,1.27,0.77554
0.01,1.28,0.77791
0.01,1.29,0.7802
0.01,1.3,0.78241
0.01,1.31,0.78454
0.01,1.32,0.78659
0.01,1.33,0.78857
0.01,1.34,0.79047
0.01,1.35,0.79229
0.01,1.36,0.79402
0.01,1.37,0.79568
0.01,1.38,0.79726
0.01,1.39,0.79876
0.01,1.4,0.80018
0.01,1.41,0.80152
0.01,1.42,0.80278
0.01,1.43,0.80396
0.01,1.44,0.80506
0.01,1.45,0.80608
0.01,1.46,0.80702
0.01,1.47,0.80788
0.01,1.48,0.80865
0.01,1.49,0.80935
0.01,1.5,0.80996
0.01,1.51,0.8105
0.01,1.52,0.81095
0.01,1.53,0.81132
0.01,1.54,0.81161
0.01,1.55,0.81182
0.01,1.56,0.81195
0.01,1.57,0.812
0.01,1.58,0.81196
0.01,1.59,0.81185
0.01,1.6,0.81165
0.01,1.61,0.81137
0.01,1.62,0.81102
0.01,1.63,0.81058
0.01,1.64,0.81005
0.01,1.65,0.80945
0.01,1.66,0.80877
0.01,1.67,0.80801
0.01,1.68,0.80716
0.01,1.69,0.80624
0.01,1.7,0.80523
0.01,1.71,0.80414
0.01,1.72,0.80298
0.01,1.73,0.80173
0.01,1.74,0.8004
0.01,1.75,0.79899
0.01,1.76,0.79751
0.01,1.77,0.79594
0.01,1.78,0.79429
0.01,1.79,0.79257
0.01,1.8,0.79076
0.01,1.81,0.78888
0.01,1.82,0.78691
0.01,1.83,0.78487
0.01,1.84,0.78275
0.01,1.85,0.78055
0.01,1.86,0.77828
0.01,1.87,0.77592
0.01,1.88,0.77349
0.01,1.89,0.77098
0.01,1.9,0.76839
0.01,1.91,0.76573
0.01,1.92,0.76299
0.01,1.93,0.76017
0.01,1.94,0.75728
0.01,1.95,0.75431
0.01,1.96,0.75127
0.01,1.97,0.74815
0.01,1.98,0.74496
0.01,1.99,0.74169
0.01,2,0.73835
0.01,2.01,0.73493
0.01,2.02,0.73144
0.01,2.03,0.72788
0.01,2.04,0.72424
0.01,2.05,0.72054
0.01,2.06,0.71676
0.01,2.07,0.71291
0.01,2.08,0.70898
0.01,2.09,0.70499
0.01,2.1,0.70092
0.01,2.11,0.69679
0.01,2.12,0.69259
0.01,2.13,0.68831
0.01,2.14,0.68397
0.01,2.15,0.67956
0.01,2.16,0.67508
0.01,2.17,0.67054
0.01,2.18,0.66592
0.01,2.19,0.66124
0.01,2.2,0.6565
0.01,2.21,0.65169
0.01,2.22,0.64681
0.01,2.23,0.64187
0.01,2.24,0.63686
0.01,2.25,0.63179
0.01,2.26,0.62666
0.01,2.27,0.62147
0.01,2.28,0.61621
0.01,2.29,0.61089
0.01,2.3,0.60551
0.01,2.31,0.60007
0.01,2.32,0.59457
0.01,2.33,0.58901
0.01,2.34,0.58339
0.01,2.35,0.57772
0.01,2.36,0.57198
0.01,2.37,0.56619
0.01,2.38,0.56034
0.01,2.39,0.55443
0.01,2.4,0.54847
0.01,2.41,0.54246
0.01,2.42,0.53639
0.01,2.43,0.53027
0.01,2.44,0.52409
0.01,2.45,0.51786
0.01,2.46,0.51158
0.01,2.47,0.50525
0.01,2.48,0.49887
0.01,2.49,0.49244
0.01,2.5,0.48596
0.01,2.51,0.47943
0.01,2.52,0.47285
0.01,2.53,0.46623
0.01,2.54,0.45956
0.01,2.55,0.45284
0.01,2.56,0.44608
0.01,2.57,0.43927
0.01,2.58,0.43242
0.01,2.59,0.42552
0.01,2.6,0.41859
0.01,2.61,0.41161
0.01,2.62,0.40459
0.01,2.63,0.39753
0.01,2.64,0.39043
0.01,2.65,0.38329
0.01,2.66,0.37611
0.01,2.67,0.3689
0.01,2.68,0.36164
0.01,2.69,0.35436
0.01,2.7,0.34703
0.01,2.71,0.33967
0.01,2.72,0.33228
0.01,2.73,0.32486
0.01,2.74,0.3174
0.01,2.75,0.30991
0.01,2.76,0.30239
0.01,2.77,0.29484
0.01,2.78,0.28726
0.01,2.79,0.27965
0.01,2.8,0.27201
0.01,2.81,0.26435
0.01,2.82,0.25665
0.01,2.83,0.24894
0.01,2.84,0.2412
0.01,2.85,0.23343
0.01,2.86,0.22564
0.01,2.87,0.21783
0.01,2.88,0.21
0.01,2.89,0.20214
0.01,2.9,0.19427
0.01,2.91,0.18638
0.01,2.92,0.17846
0.01,2.93,0.17053
0.01,2.94,0.16259
0.01,2.95,0.15462
0.01,2.96,0.14664
0.01,2.97,0.13865
0.01,2.98,0.13064
0.01,2.99,0.12262
0.01,3,0.11459
0.01,3.01,0.10654
0.01,3.02,0.09849
0.01,3.03,0.090425
0.01,3.04,0.082351
0.01,3.05,0.074269
0.01,3.06,0.06618
0.01,3.07,0.058083
0.01,3.08,0.049982
0.01,3.09,0.041875
0.01,3.1,0.033763
0.01,3.11,0.025649
0.01,3.12,0.017532
0.01,3.13,0.009413
0.01,3.14,0.0012932
0.02,0,0
0.02,0.01,0.016239
0.02,0.02,0.032476
0.02,0.03,0.04871
0.02,0.04,0.064939
0.02,0.05,0.081162
0.02,0.06,0.097376
0.02,0.07,0.11358
0.02,0.08,0.12977
0.02,0.09,0.14596
0.02,0.1,0.16212
0.02,0.11,0.17827
0.02,0.12,0.1944
0.02,0.13,0.21051
0.02,0.14,0.22661
0.02,0.15,0.24267
0.02,0.16,0.25872
0.02,0.17,0.27474
0.02,0.18,0.29073
0.02,0.19,0.30669
0.02,0.2,0.32262
0.02,0.21,0.33852
0.02,0.22,0.35439
0.02,0.23,0.37022
0.02,0.24,0.38601
0.02,0.25,0.40176
0.02,0.26,0.41748
0.02,0.27,0.43315
0.02,0.28,0.44878
0.02,0.29,0.46436
0.02,0.3,0.4799
0.02,0.31,0.49539
0.02,0.32,0.51083
0.02,0.33,0.52622
0.02,0.34,0.54155
0.02,0.35,0.55684
0.02,0.36,0.57206
0.02,0.37,0.58723
0.02,0.38,0.60234
0.02,0.39,0.61739
0.02,0.4,0.63238
0.02,0.41,0.64731
0.02,0.42,0.66217
0.02,0.43,0.67696
0.02,0.44,0.69169
0.02,0.45,0.70635
0.02,0.46,0.72093
0.02,0.47,0.73545
0.02,0.48,0.74989
0.02,0.49,0.76426
0.02,0.5,0.77855
0.02,0.51,0.79276
0.02,0.52,0.80689
0.02,0.53,0.82094
0.02,0.54,0.83491
0.02,0.55,0.8488
0.02,0.56,0.8626
0.02,0.57,0.87632
0.02,0.58,0.88994
0.02,0.59,0.90348
0.02,0.6,0.91693
0.02,0.61,0.93029
0.02,0.62,0.94355
0.02,0.63,0.95672
0.02,0.64,0.96979
0.02,0.65,0.98277
0.02,0.66,0.99565
0.02,0.67,1.0084
0.02,0.68,1.0211
0.02,0.69,1.0337
0.02,0.7,1.0462
0.02,0.71,1.0585
0.02,0.72,1.0708
0.02,0.73,1.0829
0.02,0.74,1.095
0.02,0.75,1.1069
0.02,0.76,1.1187
0.02,0.77,1.1305
0.02,0.78,1.1421
0.02,0.79,1.1536
0.02,0.8,1.1649
0.02,0.81,1.1762
0.02,0.82,1.1873
0.02,0.83,1.1983
0.02,0.84,1.2092
0.02,0.85,1.22
0.02,0.86,1.2307
0.02,0.87,1.2412
0.02,0.88,1.2516
0.02,0.89,1.2619
0.02,0.9,1.2721
0.02,0.91,1.2821
0.02,0.92,1.292
0.02,0.93,1.3018
0.02,0.94,1.3114
0.02,0.95,1.3209
0.02,0.96,1.3303
0.02,0.97,1.3395
0.02,0.98,1.3487
0.02,0.99,1.3576
0.02,1,1.3665
0.02,1.01,1.3752
0.02,1.02,1.3838
0.02,1.03,1.3922
0.02,1.04,1.4005
0.02,1.05,1.4086
0.02,1.06,1.4166
0.02,1.07,1.4245
0.02,1.08,1.4322
0.02,1.09,1.4398
0.02,1.1,1.4472
0.02,1.11,1.4545
0.02,1.12,1.4617
0.02,1.13,1.4687
0.02,1.14,1.4755
0.02,1.15,1.4823
0.02,1.16,1.4888
0.02,1.17,1.4952
0.02,1.18,1.5015
0.02,1.19,1.5076
0.02,1.2,1.5136
0.02,1.21,1.5194
0.02,1.22,1.525
0.02,1.23,1.5305
0.02,1.24,1.5359
0.02,1.25,1.5411
0.02,1.26,1.5461
0.02,1.27,1.551
0.02,1.28,1.5557
0.02,1.29,1.5603
0.02,1.3,1.5647
0.02,1.31,1.569
0.02,1.32,1.5731
0.02,1.33,1.5771
0.02,1.34,1.5809
0.02,1.35,1.5845
0.02,1.36,1.588
0.02,1.37,1.5913
0.02,1.38,1.5944
0.02,1.39,1.5974
0.02,1.4,1.6003
0.02,1.41,1.603
0.02,1.42,1.6055
0.02,1.43,1.6078
0.02,1.44,1.61
0.02,1.45,1.6121
0.02,1.46,1.614
0.02,1.47,1.6157
0.02,1.48,1.6172
0.02,1.49,1.6186
0.02,1.5,1.6198
0.02,1.51,1.6209
0.02,1.52,1.6218
0.02,1.53,1.6226
0.02,1.54,1.6231
0.02,1.55,1.6236
0.02,1.56,1.6238
0.02,1.57,1.6239
0.02,1.58,1.6238
0.02,1.59,1.6236
0.02,1.6,1.6232
0.02,1.61,1.6227
0.02,1.62,1.6219
0.02,1.63,1.6211
0.02,1.64,1.62
0.02,1.65,1.6188
0.02,1.66,1.6175
0.02,1.67,1.6159
0.02,1.68,1.6142
0.02,1.69,1.6124
0.02,1.7,1.6104
0.02,1.71,1.6082
0.02,1.72,1.6059
0.02,1.73,1.6034
0.02,1.74,1.6007
0.02,1.75,1.5979
0.02,1.76,1.5949
0.02,1.77,1.5918
0.02,1.78,1.5885
0.02,1.79,1.5851
0.02,1.8,1.5814
0.02,1.81,1.5777
0.02,1.82,1.5738
0.02,1.83,1.5697
0.02,1.84,1.5654
0.02,1.85,1.561
0.02,1.86,1.5565
0.02,1.87,1.5518
0.02,1.88,1.5469
0.02,1.89,1.5419
0.02,1.9,1.5367
0.02,1.91,1.5314
0.02,1.92,1.5259
0.02,1.93,1.5203
0.02,1.94,1.5145
0.02,1.95,1.5086
0.02,1.96,1.5025
0.02,1.97,1.4962
0.02,1.98,1.4898
0.02,1.99,1.4833
0.02,2,1.4766
0.02,2.01,1.4698
0.02,2.02,1.4628
0.02,2.03,1.4557
0.02,2.04,1.4484
0.02,2.05,1.441
0.02,2.06,1.4334
0.02,2.07,1.4257
0.02,2.08,1.4179
0.02,2.09,1.4099
0.02,2.1,1.4018
0.02,2.11,1.3935
0.02,2.12,1.3851
0.02,2.13,1.3766
0.02,2.14,1.3679
0.02,2.15,1.3591
0.02,2.16,1.3501
0.02,2.17,1.341
0.02,2.18,1.3318
0.02,2.19,1.3224
0.02,2.2,1.3129
0.02,2.21,1.3033
0.02,2.22,1.2936
0.02,2.23,1.2837
0.02,2.24,1.2737
0.02,2.25,1.2635
0.02,2.26,1.2533
0.02,2.27,1.2429
0.02,2.28,1.2324
0.02,2.29,1.2217
0.02,2.3,1.211
0.02,2.31,1.2001
0.02,2.32,1.1891
0.02,2.33,1.178
0.02,2.34,1.1667
0.02,2.35,1.1554
0.02,2.36,1.1439
0.02,2.37,1.1323
0.02,2.38,1.1206
0.02,2.39,1.1088
0.02,2.4,1.0969
0.02,2.41,1.0849
0.02,2.42,1.0727
0.02,2.43,1.0605
0.02,2.44,1.0481
0.02,2.45,1.0357
0.02,2.46,1.0231
0.02,2.47,1.0105
0.02,2.48,0.99769
0.02,2.49,0.98483
0.02,2.5,0.97187
0.02,2.51,0.95881
0.02,2.52,0.94566
0.02,2.53,0.93241
0.02,2.54,0.91906
0.02,2.55,0.90563
0.02,2.56,0.89211
0.02,2.57,0.87849
0.02,2.58,0.86479
0.02,2.59,0.851
0.02,2.6,0.83713
0.02,2.61,0.82317
0.02,2.62,0.80913
0.02,2.63,0.79501
0.02,2.64,0.78082
0.02,2.65,0.76654
0.02,2.66,0.75218
0.02,2.67,0.73775
0.02,2.68,0.72325
0.02,2.69,0.70868
0.02,2.7,0.69403
0.02,2.71,0.67931
0.02,2.72,0.66453
0.02,2.73,0.64968
0.02,2.74,0.63476
0.02,2.75,0.61979
0.02,2.76,0.60474
0.02,2.77,0.58964
0.02,2.78,0.57448
0.02,2.79,0.55927
0.02,2.8,0.54399
0.02,2.81,0.52866
0.02,2.82,0.51328
0.02,2.83,0.49785
0.02,2.84,0.48237
0.02,2.85,0.46684
0.02,2.86,0.45126
0.02,2.87,0.43564
0.02,2.88,0.41998
0.02,2.89,0.40427
0.02,2.9,0.38852
0.02,2.91,0.37273
0.02,2.92,0.35691
0.02,2.93,0.34105
0.02,2.94,0.32516
0.02,2.95,0.30923
0.02,2.96,0.29327
0.02,2.97,0.27729
0.02,2.98,0.26127
0.02,2.99,0.24523
0.02,3,0.22917
0.02,3.01,0.21308
0.02,3.02,0.19697
0.02,3.03,0.18084
0.02,3.04,0.16469
0.02,3.05,0.14853
0.02,3.06,0.13235
0.02,3.07,0.11616
0.02,3.08,0.099958
0.02,3.09,0.083745
0.02,3.1,0.067523
0.02,3.11,0.051295
0.02,3.12,0.035062
0.02,3.13,0.018825
0.02,3.14,0.0025863
0.03,0,0
0.03,0.01,0.024356
0.03,0.02,0.04871
0.03,0.03,0.073059
0.03,0.04,0.097401
0.03,0.05,0.12173
0.03,0.06,0.14605
0.03,0.07,0.17036
0.03,0.08,0.19465
0.03,0.09,0.21891
0.03,0.1,0.24316
0.03,0.11,0.26738
0.03,0.12,0.29158
0.03,0.13,0.31575
0.03,0.14,0.33988
0.03,0.15,0.36398
0.03,0.16,0.38805
0.03,0.17,0.41207
0.03,0.18,0.43606
0.03,0.19,0.46
0.03,0.2,0.48389
0.03,0.21,0.50774
0.03,0.22,0.53154
0.03,0.23,0.55528
0.03,0.24,0.57897
0.03,0.25,0.60259
0.03,0.26,0.62616
0.03,0.27,0.64967
0.03,0.28,0.67311
0.03,0.29,0.69649
0.03,0.3,0.71979
0.03,0.31,0.74302
0.03,0.32,0.76618
0.03,0.33,0.78926
0.03,0.34,0.81226
0.03,0.35,0.83519
0.03,0.36,0.85802
0.03,0.37,0.88078
0.03,0.38,0.90344
0.03,0.39,0.92601
0.03,0.4,0.94849
0.03,0.41,0.97088
0.03,0.42,0.99317
0.03,0.43,1.0154
0.03,0.44,1.0374
0.03,0.45,1.0594
0.03,0.46,1.0813
0.03,0.47,1.1031
0.03,0.48,1.1247
0.03,0.49,1.1463
0.03,0.5,1.1677
0.03,0.51,1.189
0.03,0.52,1.2102
0.03,0.53,1.2313
0.03,0.54,1.2523
0.03,0.55,1.2731
0.03,0.56,1.2938
0.03,0.57,1.3144
0.03,0.58,1.3348
0.03,0.59,1.3551
0.03,0.6,1.3753
0.03,0.61,1.3953
0.03,0.62,1.4152
0.03,0.63,1.435
0.03,0.64,1.4546
0.03,0.65,1.474
0.03,0.66,1.4934
0.03,0.67,1.5125
0.03,0.68,1.5315
0.03,0.69,1.5504
0.03,0.7,1.5691
0.03,0.71,1.5877
0.03,0.72,1.606
0.03,0.73,1.6243
0.03,0.74,1.6423
0.03,0.75,1.6602
0.03,0.76,1.678
0.03,0.77,1.6956
0.03,0.78,1.713
0.03,0.79,1.7302
0.03,0.8,1.7472
0.03,0.81,1.7641
0.03,0.82,1.7808
0.03,0.83,1.7974
0.03,0.84,1.8137
0.03,0.85,1.8299
0.03,0.86,1.8459
0.03,0.87,1.8617
0.03,0.88,1.8773
0.03,0.89,1.8927
0.03,0.9,1.9079
0.03,0.91,1.923
0.03,0.92,1.9378
0.03,0.93,1.9525
0.03,0.94,1.9669
0.03,0.95,1.9812
0.03,0.96,1.9953
0.03,0.97,2.0091
0.03,0.98,2.0228
0.03,0.99,2.0363
0.03,1,2.0495
0.03,1.01,2.0626
0.03,1.02,2.0755
0.03,1.03,2.0881
0.03,1.04,2.1005
0.03,1.05,2.1128
0.03,1.06,2.1248
0.03,1.07,2.1366
0.03,1.08,2.1482
0.03,1.09,2.1595
0.03,1.1,2.1707
0.03,1.11,2.1816
0.03,1.12,2.1923
0.03,1.13,2.2028
0.03,1.14,2.2131
0.03,1.15,2.2232
0.03,1.16,2.233
0.03,1.17,2.2426
0.03,1.18,2.252
0.03,1.19,2.2612
0.03,1.2,2.2701
0.03,1.21,2.2789
0.03,1.22,2.2873
0.03,1.23,2.2956
0.03,1.24,2.3036
0.03,1.25,2.3114
0.03,1.26,2.319
0.03,1.27,2.3263
0.03,1.28,2.3334
0.03,1.29,2.3403
0.03,1.3,2.3469
0.03,1.31,2.3533
0.03,1.32,2.3595
0.03,1.33,2.3654
0.03,1.34,2.3711
0.03,1.35,2.3765
0.03,1.36,2.3818
0.03,1.37,2.3867
0.03,1.38,2.3915
0.03,1.39,2.396
0.03,1.4,2.4002
0.03,1.41,2.4042
0.03,1.42,2.408
0.03,1.43,2.4116
0.03,1.44,2.4149
0.03,1.45,2.4179
0.03,1.46,2.4207
0.03,1.47,2.4233
0.03,1.48,2.4256
0.03,1.49,2.4277
0.03,1.5,2.4296
0.03,1.51,2.4312
0.03,1.52,2.4325
0.03,1.53,2.4336
0.03,1.54,2.4345
0.03,1.55,2.4351
0.03,1.56,2.4355
0.03,1.57,2.4357
0.03,1.58,2.4356
0.03,1.59,2.4352
0.03,1.6,2.4346
0.03,1.61,2.4338
0.03,1.62,2.4327
0.03,1.63,2.4314
0.03,1.64,2.4298
0.03,1.65,2.428
0.03,1.66,2.426
0.03,1.67,2.4237
0.03,1.68,2.4212
0.03,1.69,2.4184
0.03,1.7,2.4154
0.03,1.71,2.4121
0.03,1.72,2.4086
0.03,1.73,2.4049
0.03,1.74,2.4009
0.03,1.75,2.3967
0.03,1.76,2.3922
0.03,1.77,2.3875
0.03,1.78,2.3826
0.03,1.79,2.3774
0.03,1.8,2.372
0.03,1.81,2.3663
0.03,1.82,2.3604
0.03,1.83,2.3543
0.03,1.84,2.3479
0.03,1.85,2.3413
0.03,1.86,2.3345
0.03,1.87,2.3275
0.03,1.88,2.3202
0.03,1.89,2.3126
0.03,1.9,2.3049
0.03,1.91,2.2969
0.03,1.92,2.2887
0.03,1.93,2.2802
0.03,1.94,2.2715
0.03,1.95,2.2626
0.03,1.96,2.2535
0.03,1.97,2.2442
0.03,1.98,2.2346
0.03,1.99,2.2248
0.03,2,2.2147
0.03,2.01,2.2045
0.03,2.02,2.194
0.03,2.03,2.1833
0.03,2.04,2.1724
0.03,2.05,2.1613
0.03,2.06,2.15
0.03,2.07,2.1384
0.03,2.08,2.1267
0.03,2.09,2.1147
0.03,2.1,2.1025
0.03,2.11,2.0901
0.03,2.12,2.0775
0.03,2.13,2.0647
0.03,2.14,2.0516
0.03,2.15,2.0384
0.03,2.16,2.025
0.03,2.17,2.0113
0.03,2.18,1.9975
0.03,2.19,1.9835
0.03,2.2,1.9692
0.03,2.21,1.9548
0.03,2.22,1.9402
0.03,2.23,1.9253
0.03,2.24,1.9103
0.03,2.25,1.8951
0.03,2.26,1.8797
0.03,2.27,1.8642
0.03,2.28,1.8484
0.03,2.29,1.8324
0.03,2.3,1.8163
0.03,2.31,1.8
0.03,2.32,1.7835
0.03,2.33,1.7668
0.03,2.34,1.7499
0.03,2.35,1.7329
0.03,2.36,1.7157
0.03,2.37,1.6983
0.03,2.38,1.6808
0.03,2.39,1.6631
0.03,2.4,1.6452
0.03,2.41,1.6272
0.03,2.42,1.609
0.03,2.43,1.5906
0.03,2.44,1.5721
0.03,2.45,1.5534
0.03,2.46,1.5345
0.03,2.47,1.5156
0.03,2.48,1.4964
0.03,2.49,1.4771
0.03,2.5,1.4577
0.03,2.51,1.4381
0.03,2.52,1.4184
0.03,2.53,1.3985
0.03,2.54,1.3785
0.03,2.55,1.3583
0.03,2.56,1.338
0.03,2.57,1.3176
0.03,2.58,1.2971
0.03,2.59,1.2764
0.03,2.6,1.2556
0.03,2.61,1.2347
0.03,2.62,1.2136
0.03,2.63,1.1924
0.03,2.64,1.1711
0.03,2.65,1.1497
0.03,2.66,1.1282
0.03,2.67,1.1065
0.03,2.68,1.0848
0.03,2.69,1.0629
0.03,2.7,1.041
0.03,2.71,1.0189
0.03,2.72,0.99671
0.03,2.73,0.97444
0.03,2.74,0.95207
0.03,2.75,0.9296
0.03,2.76,0.90704
0.03,2.77,0.88439
0.03,2.78,0.86165
0.03,2.79,0.83883
0.03,2.8,0.81592
0.03,2.81,0.79293
0.03,2.82,0.76986
0.03,2.83,0.74672
0.03,2.84,0.72349
0.03,2.85,0.7002
0.03,2.86,0.67684
0.03,2.87,0.65341
0.03,2.88,0.62991
0.03,2.89,0.60635
0.03,2.9,0.58273
0.03,2.91,0.55905
0.03,2.92,0.53532
0.03,2.93,0.51153
0.03,2.94,0.48769
0.03,2.95,0.46381
0.03,2.96,0.43987
0.03,2.97,0.4159
0.03,2.98,0.39188
0.03,2.99,0.36782
0.03,3,0.34372
0.03,3.01,0.31959
0.03,3.02,0.29543
0.03,3.03,0.27124
0.03,3.04,0.24702
0.03,3.05,0.22278
0.03,3.06,0.19851
0.03,3.07,0.17423
0.03,3.08,0.14992
0.03,3.09,0.12561
0.03,3.1,0.10128
0.03,3.11,0.076936
0.03,3.12,0.052588
0.03,3.13,0.028235
0.03,3.14,0.0038792
0.04,0,0
0.04,0.01,0.032471
0.04,0.02,0.064939
0.04,0.03,0.097401
0.04,0.04,0.12985
0.04,0.05,0.16229
0.04,0.06,0.19471
0.04,0.07,0.22712
0.04,0.08,0.2595
0.04,0.09,0.29185
0.04,0.1,0.32418
0.04,0.11,0.35647
0.04,0.12,0.38873
0.04,0.13,0.42095
0.04,0.14,0.45312
0.04,0.15,0.48525
0.04,0.16,0.51734
0.04,0.17,0.54937
0.04,0.18,0.58134
0.04,0.19,0.61326
0.04,0.2,0.64512
0.04,0.21,0.67691
0.04,0.22,0.70863
0.04,0.23,0.74028
0.04,0.24,0.77186
0.04,0.25,0.80337
0.04,0.26,0.83479
0.04,0.27,0.86613
0.04,0.28,0.89738
0.04,0.29,0.92854
0.04,0.3,0.95961
0.04,0.31,0.99058
0.04,0.32,1.0215
0.04,0.33,1.0522
0.04,0.34,1.0829
0.04,0.35,1.1135
0.04,0.36,1.1439
0.04,0.37,1.1742
0.04,0.38,1.2044
0.04,0.39,1.2345
0.04,0.4,1.2645
0.04,0.41,1.2944
0.04,0.42,1.3241
0.04,0.43,1.3537
0.04,0.44,1.3831
0.04,0.45,1.4124
0.04,0.46,1.4416
0.04,0.47,1.4706
0.04,0.48,1.4995
0.04,0.49,1.5282
0.04,0.5,1.5568
0.04,0.51,1.5852
0.04,0.52,1.6135
0.04,0.53,1.6416
0.04,0.54,1.6695
0.04,0.55,1.6973
0.04,0.56,1.7249
0.04,0.57,1.7523
0.04,0.58,1.7795
0.04,0.59,1.8066
0.04,0.6,1.8335
0.04,0.61,1.8602
0.04,0.62,1.8867
0.04,0.63,1.9131
0.04,0.64,1.9392
0.04,0.65,1.9651
0.04,0.66,1.9909
0.04,0.67,2.0165
0.04,0.68,2.0418
0.04,0.69,2.067
0.04,0.7,2.0919
0.04,0.71,2.1166
0.04,0.72,2.1411
0.04,0.73,2.1654
0.04,0.74,2.1895
0.04,0.75,2.2134
0.04,0.76,2.2371
0.04,0.77,2.2605
0.04,0.78,2.2837
0.04,0.79,2.3066
0.04,0.8,2.3294
0.04,0.81,2.3519
0.04,0.82,2.3742
0.04,0.83,2.3962
0.04,0.84,2.418
0.04,0.85,2.4395
0.04,0.86,2.4609
0.04,0.87,2.4819
0.04,0.88,2.5027
0.04,0.89,2.5233
0.04,0.9,2.5436
0.04,0.91,2.5637
0.04,0.92,2.5835
0.04,0.93,2.603
0.04,0.94,2.6223
0.04,0.95,2.6413
0.04,0.96,2.6601
0.04,0.97,2.6786
0.04,0.98,2.6968
0.04,0.99,2.7147
0.04,1,2.7324
0.04,1.01,2.7498
0.04,1.02,2.7669
0.04,1.03,2.7838
0.04,1.04,2.8004
0.04,1.05,2.8167
0.04,1.06,2.8327
0.04,1.07,2.8484
0.04,1.08,2.8639
0.04,1.09,2.879
0.04,1.1,2.8939
0.04,1.11,2.9085
0.04,1.12,2.9228
0.04,1.13,2.9368
0.04,1.14,2.9505
0.04,1.15,2.9639
0.04,1.16,2.977
0.04,1.17,2.9898
0.04,1.18,3.0024
0.04,1.19,3.0146
0.04,1.2,3.0265
0.04,1.21,3.0381
0.04,1.22,3.0494
0.04,1.23,3.0604
0.04,1.24,3.0711
0.04,1.25,3.0815
0.04,1.26,3.0916
0.04,1.27,3.1014
0.04,1.28,3.1109
0.04,1.29,3.12
0.04,1.3,3.1288
0.04,1.31,3.1374
0.04,1.32,3.1456
0.04,1.33,3.1535
0.04,1.34,3.1611
0.04,1.35,3.1684
0.04,1.36,3.1753
0.04,1.37,3.1819
0.04,1.38,3.1883
0.04,1.39,3.1943
0.04,1.4,3.1999
0.04,1.41,3.2053
0.04,1.42,3.2103
0.04,1.43,3.215
0.04,1.44,3.2194
0.04,1.45,3.2235
0.04,1.46,3.2273
0.04,1.47,3.2307
0.04,1.48,3.2338
0.04,1.49,3.2366
0.04,1.5,3.239
0.04,1.51,3.2412
0.04,1.52,3.243
0.04,1.53,3.2445
0.04,1.54,3.2456
0.04,1.55,3.2465
0.04,1.56,3.247
0.04,1.57,3.2472
0.04,1.58,3.247
0.04,1.59,3.2466
0.04,1.6,3.2458
0.04,1.61,3.2447
0.04,1.62,3.2433
0.04,1.63,3.2415
0.04,1.64,3.2394
0.04,1.65,3.237
0.04,1.66,3.2343
0.04,1.67,3.2312
0.04,1.68,3.2278
0.04,1.69,3.2241
0.04,1.7,3.2201
0.04,1.71,3.2158
0.04,1.72,3.2111
0.04,1.73,3.2061
0.04,1.74,3.2008
0.04,1.75,3.1952
0.04,1.76,3.1892
0.04,1.77,3.183
0.04,1.78,3.1764
0.04,1.79,3.1695
0.04,1.8,3.1623
0.04,1.81,3.1547
0.04,1.82,3.1469
0.04,1.83,3.1387
0.04,1.84,3.1302
0.04,1.85,3.1214
0.04,1.86,3.1123
0.04,1.87,3.1029
0.04,1.88,3.0932
0.04,1.89,3.0832
0.04,1.9,3.0728
0.04,1.91,3.0622
0.04,1.92,3.0512
0.04,1.93,3.0399
0.04,1.94,3.0284
0.04,1.95,3.0165
0.04,1.96,3.0043
0.04,1.97,2.9919
0.04,1.98,2.9791
0.04,1.99,2.966
0.04,2,2.9527
0.04,2.01,2.939
0.04,2.02,2.925
0.04,2.03,2.9108
0.04,2.04,2.8963
0.04,2.05,2.8814
0.04,2.06,2.8663
0.04,2.07,2.8509
0.04,2.08,2.8352
0.04,2.09,2.8192
0.04,2.1,2.803
0.04,2.11,2.7865
0.04,2.12,2.7697
0.04,2.13,2.7526
0.04,2.14,2.7352
0.04,2.15,2.7176
0.04,2.16,2.6997
0.04,2.17,2.6815
0.04,2.18,2.663
0.04,2.19,2.6443
0.04,2.2,2.6253
0.04,2.21,2.6061
0.04,2.22,2.5866
0.04,2.23,2.5668
0.04,2.24,2.5468
0.04,2.25,2.5265
0.04,2.26,2.506
0.04,2.27,2.4852
0.04,2.28,2.4642
0.04,2.29,2.443
0.04,2.3,2.4214
0.04,2.31,2.3997
0.04,2.32,2.3777
0.04,2.33,2.3555
0.04,2.34,2.333
0.04,2.35,2.3103
0.04,2.36,2.2873
0.04,2.37,2.2642
0.04,2.38,2.2408
0.04,2.39,2.2172
0.04,2.4,2.1934
0.04,2.41,2.1693
0.04,2.42,2.145
0.04,2.43,2.1205
0.04,2.44,2.0958
0.04,2.45,2.0709
0.04,2.46,2.0458
0.04,2.47,2.0205
0.04,2.48,1.995
0.04,2.49,1.9693
0.04,2.5,1.9433
0.04,2.51,1.9172
0.04,2.52,1.8909
0.04,2.53,1.8644
0.04,2.54,1.8378
0.04,2.55,1.8109
0.04,2.56,1.7839
0.04,2.57,1.7566
0.04,2.58,1.7292
0.04,2.59,1.7017
0.04,2.6,1.6739
0.04,2.61,1.646
0.04,2.62,1.6179
0.04,2.63,1.5897
0.04,2.64,1.5613
0.04,2.65,1.5328
0.04,2.66,1.5041
0.04,2.67,1.4752
0.04,2.68,1.4462
0.04,2.69,1.4171
0.04,2.7,1.3878
0.04,2.71,1.3584
0.04,2.72,1.3288
0.04,2.73,1.2991
0.04,2.74,1.2693
0.04,2.75,1.2393
0.04,2.76,1.2092
0.04,2.77,1.1791
0.04,2.78,1.1487
0.04,2.79,1.1183
0.04,2.8,1.0878
0.04,2.81,1.0571
0.04,2.82,1.0264
0.04,2.83,0.9955
0.04,2.84,0.96455
0.04,2.85,0.93349
0.04,2.86,0.90235
0.04,2.87,0.87111
0.04,2.88,0.83978
0.04,2.89,0.80838
0.04,2.9,0.77689
0.04,2.91,0.74532
0.04,2.92,0.71368
0.04,2.93,0.68196
0.04,2.94,0.65018
0.04,2.95,0.61834
0.04,2.96,0.58643
0.04,2.97,0.55446
0.04,2.98,0.52244
0.04,2.99,0.49037
0.04,3,0.45824
0.04,3.01,0.42607
0.04,3.02,0.39386
0.04,3.03,0.36161
0.04,3.04,0.32932
0.04,3.05,0.297
0.04,3.06,0.26465
0.04,3.07,0.23228
0.04,3.08,0.19988
0.04,3.09,0.16746
0.04,3.1,0.13502
0.04,3.11,0.10257
0.04,3.12,0.07011
0.04,3.13,0.037643
0.04,3.14,0.0051716
0.05,0,0
0.05,0.01,0.040583
0.05,0.02,0.081162
0.05,0.03,0.12173
0.05,0.04,0.16229
0.05,0.05,0.20283
0.05,0.06,0.24336
0.05,0.07,0.28385
0.05,0.08,0.32432
0.05,0.09,0.36476
0.05,0.1,0.40516
0.05,0.11,0.44552
0.05,0.12,0.48584
0.05,0.13,0.5261
0.05,0.14,0.56632
0.05,0.15,0.60647
0.05,0.16,0.64657
0.05,0.17,0.6866
0.05,0.18,0.72657
0.05,0.19,0.76646
0.05,0.2,0.80627
0.05,0.21,0.84601
0.05,0.22,0.88566
0.05,0.23,0.92522
0.05,0.24,0.96468
0.05,0.25,1.0041
0.05,0.26,1.0433
0.05,0.27,1.0825
0.05,0.28,1.1216
0.05,0.29,1.1605
0.05,0.3,1.1993
0.05,0.31,1.238
0.05,0.32,1.2766
0.05,0.33,1.3151
0.05,0.34,1.3534
0.05,0.35,1.3916
0.05,0.36,1.4297
0.05,0.37,1.4676
0.05,0.38,1.5053
0.05,0.39,1.5429
0.05,0.4,1.5804
0.05,0.41,1.6177
0.05,0.42,1.6548
0.05,0.43,1.6918
0.05,0.44,1.7286
0.05,0.45,1.7652
0.05,0.46,1.8017
0.05,0.47,1.838
0.05,0.48,1.8741
0.05,0.49,1.91
0.05,0.5,1.9457
0.05,0.51,1.9812
0.05,0.52,2.0165
0.05,0.53,2.0516
0.05,0.54,2.0866
0.05,0.55,2.1213
0.05,0.56,2.1557
0.05,0.57,2.19
0.05,0.58,2.2241
0.05,0.59,2.2579
0.05,0.6,2.2915
0.05,0.61,2.3249
0.05,0.62,2.3581
0.05,0.63,2.391
0.05,0.64,2.4236
0.05,0.65,2.4561
0.05,0.66,2.4883
0.05,0.67,2.5202
0.05,0.68,2.5519
0.05,0.69,2.5833
0.05,0.7,2.6145
0.05,0.71,2.6454
0.05,0.72,2.676
0.05,0.73,2.7064
0.05,0.74,2.7365
0.05,0.75,2.7663
0.05,0.76,2.7959
0.05,0.77,2.8252
0.05,0.78,2.8542
0.05,0.79,2.8829
0.05,0.8,2.9113
0.05,0.81,2.9394
0.05,0.82,2.9673
0.05,0.83,2.9948
0.05,0.84,3.022
0.05,0.85,3.049
0.05,0.86,3.0756
0.05,0.87,3.1019
0.05,0.88,3.1279
0.05,0.89,3.1536
0.05,0.9,3.179
0.05,0.91,3.2041
0.05,0.92,3.2288
0.05,0.93,3.2533
0.05,0.94,3.2774
0.05,0.95,3.3011
0.05,0.96,3.3246
0.05,0.97,3.3477
0.05,0.98,3.3705
0.05,0.99,3.3929
0.05,1,3.415
0.05,1.01,3.4368
0.05,1.02,3.4582
0.05,1.03,3.4792
0.05,1.04,3.5
0.05,1.05,3.5203
0.05,1.06,3.5403
0.05,1.07,3.56
0.05,1.08,3.5793
0.05,1.09,3.5983
0.05,1.1,3.6168
0.05,1.11,3.6351
0.05,1.12,3.6529
0.05,1.13,3.6704
0.05,1.14,3.6876
0.05,1.15,3.7043
0.05,1.16,3.7207
0.05,1.17,3.7367
0.05,1.18,3.7524
0.05,1.19,3.7677
0.05,1.2,3.7826
0.05,1.21,3.7971
0.05,1.22,3.8112
0.05,1.23,3.825
0.05,1.24,3.8383
0.05,1.25,3.8513
0.05,1.26,3.8639
0.05,1.27,3.8761
0.05,1.28,3.888
0.05,1.29,3.8994
0.05,1.3,3.9105
0.05,1.31,3.9211
0.05,1.32,3.9314
0.05,1.33,3.9413
0.05,1.34,3.9508
0.05,1.35,3.9598
0.05,1.36,3.9685
0.05,1.37,3.9768
0.05,1.38,3.9847
0.05,1.39,3.9922
0.05,1.4,3.9993
0.05,1.41,4.006
0.05,1.42,4.0123
0.05,1.43,4.0182
0.05,1.44,4.0237
0.05,1.45,4.0288
0.05,1.46,4.0335
0.05,1.47,4.0378
0.05,1.48,4.0416
0.05,1.49,4.0451
0.05,1.5,4.0482
0.05,1.51,4.0509
0.05,1.52,4.0531
0.05,1.53,4.055
0.05,1.54,4.0564
0.05,1.55,4.0575
0.05,1.56,4.0581
0.05,1.57,4.0584
0.05,1.58,4.0582
0.05,1.59,4.0576
0.05,1.6,4.0566
0.05,1.61,4.0552
0.05,1.62,4.0535
0.05,1.63,4.0513
0.05,1.64,4.0487
0.05,1.65,4.0456
0.05,1.66,4.0422
0.05,1.67,4.0384
0.05,1.68,4.0342
0.05,1.69,4.0296
0.05,1.7,4.0245
0.05,1.71,4.0191
0.05,1.72,4.0133
0.05,1.73,4.007
0.05,1.74,4.0004
0.05,1.75,3.9934
0.05,1.76,3.9859
0.05,1.77,3.9781
0.05,1.78,3.9699
0.05,1.79,3.9613
0.05,1.8,3.9522
0.05,1.81,3.9428
0.05,1.82,3.933
0.05,1.83,3.9228
0.05,1.84,3.9122
0.05,1.85,3.9012
0.05,1.86,3.8898
0.05,1.87,3.8781
0.05,1.88,3.8659
0.05,1.89,3.8534
0.05,1.9,3.8404
0.05,1.91,3.8271
0.05,1.92,3.8134
0.05,1.93,3.7994
0.05,1.94,3.7849
0.05,1.95,3.7701
0.05,1.96,3.7548
0.05,1.97,3.7393
0.05,1.98,3.7233
0.05,1.99,3.707
0.05,2,3.6903
0.05,2.01,3.6732
0.05,2.02,3.6557
0.05,2.03,3.6379
0.05,2.04,3.6198
0.05,2.05,3.6012
0.05,2.06,3.5824
0.05,2.07,3.5631
0.05,2.08,3.5435
0.05,2.09,3.5235
0.05,2.1,3.5032
0.05,2.11,3.4826
0.05,2.12,3.4615
0.05,2.13,3.4402
0.05,2.14,3.4185
0.05,2.15,3.3964
0.05,2.16,3.3741
0.05,2.17,3.3513
0.05,2.18,3.3283
0.05,2.19,3.3049
0.05,2.2,3.2812
0.05,2.21,3.2571
0.05,2.22,3.2328
0.05,2.23,3.2081
0.05,2.24,3.183
0.05,2.25,3.1577
0.05,2.26,3.1321
0.05,2.27,3.1061
0.05,2.28,3.0798
0.05,2.29,3.0532
0.05,2.3,3.0263
0.05,2.31,2.9992
0.05,2.32,2.9717
0.05,2.33,2.9439
0.05,2.34,2.9158
0.05,2.35,2.8874
0.05,2.36,2.8588
0.05,2.37,2.8298
0.05,2.38,2.8006
0.05,2.39,2.7711
0.05,2.4,2.7413
0.05,2.41,2.7112
0.05,2.42,2.6809
0.05,2.43,2.6503
0.05,2.44,2.6194
0.05,2.45,2.5883
0.05,2.46,2.5569
0.05,2.47,2.5253
0.05,2.48,2.4934
0.05,2.49,2.4612
0.05,2.5,2.4288
0.05,2.51,2.3962
0.05,2.52,2.3633
0.05,2.53,2.3302
0.05,2.54,2.2969
0.05,2.55,2.2633
0.05,2.56,2.2295
0.05,2.57,2.1955
0.05,2.58,2.1612
0.05,2.59,2.1268
0.05,2.6,2.0921
0.05,2.61,2.0572
0.05,2.62,2.0221
0.05,2.63,1.9868
0.05,2.64,1.9514
0.05,2.65,1.9157
0.05,2.66,1.8798
0.05,2.67,1.8437
0.05,2.68,1.8075
0.05,2.69,1.7711
0.05,2.7,1.7345
0.05,2.71,1.6977
0.05,2.72,1.6607
0.05,2.73,1.6236
0.05,2.74,1.5864
0.05,2.75,1.5489
0.05,2.76,1.5113
0.05,2.77,1.4736
0.05,2.78,1.4357
0.05,2.79,1.3977
0.05,2.8,1.3595
0.05,2.81,1.3212
0.05,2.82,1.2828
0.05,2.83,1.2442
0.05,2.84,1.2055
0.05,2.85,1.1667
0.05,2.86,1.1278
0.05,2.87,1.0887
0.05,2.88,1.0496
0.05,2.89,1.0103
0.05,2.9,0.97096
0.05,2.91,0.93151
0.05,2.92,0.89196
0.05,2.93,0.85233
0.05,2.94,0.81261
0.05,2.95,0.7728
0.05,2.96,0.73293
0.05,2.97,0.69297
0.05,2.98,0.65295
0.05,2.99,0.61287
0.05,3,0.57272
0.05,3.01,0.53251
0.05,3.02,0.49225
0.05,3.03,0.45194
0.05,3.04,0.41159
0.05,3.05,0.3712
0.05,3.06,0.33077
0.05,3.07,0.2903
0.05,3.08,0.24981
0.05,3.09,0.20929
0.05,3.1,0.16875
0.05,3.11,0.12819
0.05,3.12,0.087624
0.05,3.13,0.047046
0.05,3.14,0.0064636
0.06,0,0