  Title="2D heat conduction problem"
  Variables="x","y","T"
  ZONE I= 51       J= 51      F=POINT
        0.00000            0.00000              0.00000
        0.03206            0.00000              0.00000
        0.09617            0.00000              0.00000
        0.16029            0.00000              0.00000
        0.22440            0.00000              0.00000
        0.28851            0.00000              0.00000
        0.35263            0.00000              0.00000
        0.41674            0.00000              0.00000
        0.48086            0.00000              0.00000
        0.54497            0.00000              0.00000
        0.60908            0.00000              0.00000
        0.67320            0.00000              0.00000
        0.73731            0.00000              0.00000
        0.80143            0.00000              0.00000
        0.86554            0.00000              0.00000
        0.92966            0.00000              0.00000
        0.99377            0.00000              0.00000
        1.05788            0.00000              0.00000
        1.12200            0.00000              0.00000
        1.18611            0.00000              0.00000
        1.25023            0.00000              0.00000
        1.31434            0.00000              0.00000
        1.37845            0.00000              0.00000
        1.44257            0.00000              0.00000
        1.50668            0.00000              0.00000
        1.57080            0.00000              0.00000
        1.63491            0.00000              0.00000
        1.69902            0.00000              0.00000
        1.76314            0.00000              0.00000
        1.82725            0.00000              0.00000
        1.89137            0.00000              0.00000
        1.95548            0.00000              0.00000
        2.01959            0.00000              0.00000
        2.08371            0.00000              0.00000
        2.14782            0.00000              0.00000
        2.21194            0.00000              0.00000
        2.27605            0.00000              0.00000
        2.34017            0.00000              0.00000
        2.40428            0.00000              0.00000
        2.46839            0.00000              0.00000
        2.53251            0.00000              0.00000
        2.59662            0.00000              0.00000
        2.66074            0.00000              0.00000
        2.72485            0.00000              0.00000
        2.78896            0.00000              0.00000
        2.85308            0.00000              0.00000
        2.91719            0.00000              0.00000
        2.98131            0.00000              0.00000
        3.04542            0.00000              0.00000
        3.10953            0.00000              0.00000
        3.14159            0.00000              0.00000
        0.00000            0.03206              0.00000
        0.03206            0.03206              0.22710
        0.09617            0.03206              0.68037
        0.16029            0.03206              1.13085
        0.22440            0.03206              1.57667
        0.28851            0.03206              2.01602
        0.35263            0.03206              2.44708
        0.41674            0.03206              2.86808
        0.48086            0.03206              3.27729
        0.54497            0.03206              3.67304
        0.60908            0.03206              4.05369
        0.67320            0.03206              4.41769
        0.73731            0.03206              4.76353
        0.80143            0.03206              5.08979
        0.86554            0.03206              5.39514
        0.92966            0.03206              5.67832
        0.99377            0.03206              5.93816
        1.05788            0.03206              6.17360
        1.12200            0.03206              6.38368
        1.18611            0.03206              6.56752
        1.25023            0.03206              6.72437
        1.31434            0.03206              6.85359
        1.37845            0.03206              6.95465
        1.44257            0.03206              7.02713
        1.50668            0.03206              7.07073
        1.57080            0.03206              7.08528
        1.63491            0.03206              7.07071
        1.69902            0.03206              7.02709
        1.76314            0.03206              6.95459
        1.82725            0.03206              6.85352
        1.89137            0.03206              6.72428
        1.95548            0.03206              6.56741
        2.01959            0.03206              6.38356
        2.08371            0.03206              6.17347
        2.14782            0.03206              5.93802
        2.21194            0.03206              5.67817
        2.27605            0.03206              5.39498
        2.34017            0.03206              5.08963
        2.40428            0.03206              4.76336
        2.46839            0.03206              4.41752
        2.53251            0.03206              4.05352
        2.59662            0.03206              3.67288
        2.66074            0.03206              3.27714
        2.72485            0.03206              2.86793
        2.78896            0.03206              2.44694
        2.85308            0.03206              2.01590
        2.91719            0.03206              1.57658
        2.98131            0.03206              1.13077
        3.04542            0.03206              0.68033
        3.10953            0.03206              0.22709
        3.14159            0.03206              0.00000
        0.00000            0.09617              0.00000
        0.03206            0.09617              0.68037
        0.09617            0.09617              2.03832
        0.16029            0.09617              3.38789
        0.22440            0.09617              4.72353
        0.28851            0.09617              6.03975
        0.35263            0.09617              7.33116
        0.41674            0.09617              8.59243
        0.48086            0.09617              9.81839
        0.54497            0.09617             11.00401
        0.60908            0.09617             12.14440
        0.67320            0.09617             13.23489
        0.73731            0.09617             14.27098
        0.80143            0.09617             15.24844
        0.86554            0.09617             16.16323
        0.92966            0.09617             17.01160
        0.99377            0.09617             17.79006
        1.05788            0.09617             18.49541
        1.12200            0.09617             19.12477
        1.18611            0.09617             19.67554
        1.25023            0.09617             20.14545
        1.31434            0.09617             20.53258
        1.37845            0.09617             20.83534
        1.44257            0.09617             21.05248
        1.50668            0.09617             21.18311
        1.57080            0.09617             21.22670
        1.63491            0.09617             21.18306
        1.69902            0.09617             21.05237
        1.76314            0.09617             20.83518
        1.82725            0.09617             20.53237
        1.89137            0.09617             20.14519
        1.95548            0.09617             19.67523
        2.01959            0.09617             19.12442
        2.08371            0.09617             18.49503
        2.14782            0.09617             17.78963
        2.21194            0.09617             17.01114
        2.27605            0.09617             16.16275
        2.34017            0.09617             15.24794
        2.40428            0.09617             14.27048
        2.46839            0.09617             13.23438
        2.53251            0.09617             12.14390
        2.59662            0.09617             11.00352
        2.66074            0.09617              9.81793
        2.72485            0.09617              8.59200
        2.78896            0.09617              7.33077
        2.85308            0.09617              6.03941
        2.91719            0.09617              4.72325
        2.98131            0.09617              3.38768
        3.04542            0.09617              2.03819
        3.10953            0.09617              0.68033
        3.14159            0.09617              0.00000
        0.00000            0.16029              0.00000
        0.03206            0.16029              1.13085
        0.09617            0.16029              3.38789
        0.16029            0.16029              5.63100
        0.22440            0.16029              7.85096
        0.28851            0.16029             10.03865
        0.35263            0.16029             12.18509
        0.41674            0.16029             14.28145
        0.48086            0.16029             16.31912
        0.54497            0.16029             18.28973
        0.60908            0.16029             20.18517
        0.67320            0.16029             21.99767
        0.73731            0.16029             23.71976
        0.80143            0.16029             25.34438
        0.86554            0.16029             26.86485
        0.92966            0.16029             28.27492
        0.99377            0.16029             29.56880
        1.05788            0.16029             30.74118
        1.12200            0.16029             31.78723
        1.18611            0.16029             32.70265
        1.25023            0.16029             33.48370
        1.31434            0.16029             34.12715
        1.37845            0.16029             34.63037
        1.44257            0.16029             34.99128
        1.50668            0.16029             35.20840
        1.57080            0.16029             35.28084
        1.63491            0.16029             35.20831
        1.69902            0.16029             34.99109
        1.76314            0.16029             34.63010
        1.82725            0.16029             34.12680
        1.89137            0.16029             33.48326
        1.95548            0.16029             32.70214
        2.01959            0.16029             31.78665
        2.08371            0.16029             30.74054
        2.14782            0.16029             29.56811
        2.21194            0.16029             28.27418
        2.27605            0.16029             26.86407
        2.34017            0.16029             25.34357
        2.40428            0.16029             23.71893
        2.46839            0.16029             21.99684
        2.53251            0.16029             20.18435
        2.59662            0.16029             18.28893
        2.66074            0.16029             16.31837
        2.72485            0.16029             14.28075
        2.78896            0.16029             12.18445
        2.85308            0.16029             10.03810
        2.91719            0.16029              7.85050
        2.98131            0.16029              5.63065
        3.04542            0.16029              3.38767
        3.10953            0.16029              1.13077
        3.14159            0.16029              0.00000
        0.00000            0.22440              0.00000
        0.03206            0.22440              1.57667
        0.09617            0.22440              4.72353
        0.16029            0.22440              7.85096
        0.22440            0.22440             10.94612
        0.28851            0.22440             13.99629
        0.35263            0.22440             16.98894
        0.41674            0.22440             19.91177
        0.48086            0.22440             22.75277
        0.54497            0.22440             25.50027
        0.60908            0.22440             28.14297
        0.67320            0.22440             30.67002
        0.73731            0.22440             33.07104
        0.80143            0.22440             35.33615
        0.86554            0.22440             37.45605
        0.92966            0.22440             39.42203
        0.99377            0.22440             41.22601
        1.05788            0.22440             42.86058
        1.12200            0.22440             44.31902
        1.18611            0.22440             45.59535
        1.25023            0.22440             46.68431
        1.31434            0.22440             47.58143
        1.37845            0.22440             48.28304
        1.44257            0.22440             48.78624
        1.50668            0.22440             49.08896
        1.57080            0.22440             49.18996
        1.63491            0.22440             49.08883
        1.69902            0.22440             48.78599
        1.76314            0.22440             48.28267
        1.82725            0.22440             47.58096
        1.89137            0.22440             46.68372
        1.95548            0.22440             45.59465
        2.01959            0.22440             44.31823
        2.08371            0.22440             42.85970
        2.14782            0.22440             41.22505
        2.21194            0.22440             39.42100
        2.27605            0.22440             37.45497
        2.34017            0.22440             35.33503
        2.40428            0.22440             33.06990
        2.46839            0.22440             30.66888
        2.53251            0.22440             28.14184
        2.59662            0.22440             25.49917
        2.66074            0.22440             22.75173
        2.72485            0.22440             19.91080
        2.78896            0.22440             16.98806
        2.85308            0.22440             13.99553
        2.91719            0.22440             10.94549
        2.98131            0.22440              7.85048
        3.04542            0.22440              4.72323
        3.10953            0.22440              1.57657
        3.14159            0.22440              0.00000
        0.00000            0.28851              0.00000
        0.03206            0.28851              2.01602
        0.09617            0.28851              6.03975
        0.16029            0.28851             10.03865
        0.22440            0.28851             13.99629
        0.28851            0.28851             17.89641
        0.35263            0.28851             21.72296
        0.41674            0.28851             25.46025
        0.48086            0.28851             29.09291
        0.54497            0.28851             32.60601
        0.60908            0.28851             35.98511
        0.67320            0.28851             39.21634
        0.73731            0.28851             42.28640
        0.80143            0.28851             45.18270
        0.86554            0.28851             47.89332
        0.92966            0.28851             50.40713
        0.99377            0.28851             52.71379
        1.05788            0.28851             54.80385
        1.12200            0.28851             56.66869
        1.18611            0.28851             58.30067
        1.25023            0.28851             59.69308
        1.31434            0.28851             60.84019
        1.37845            0.28851             61.73730
        1.44257            0.28851             62.38071
        1.50668            0.28851             62.76779
        1.57080            0.28851             62.89694
        1.63491            0.28851             62.76764
        1.69902            0.28851             62.38041
        1.76314            0.28851             61.73684
        1.82725            0.28851             60.83958
        1.89137            0.28851             59.69233
        1.95548            0.28851             58.29979
        2.01959            0.28851             56.66769
        2.08371            0.28851             54.80273
        2.14782            0.28851             52.71258
        2.21194            0.28851             50.40583
        2.27605            0.28851             47.89195
        2.34017            0.28851             45.18129
        2.40428            0.28851             42.28497
        2.46839            0.28851             39.21490
        2.53251            0.28851             35.98369
        2.59662            0.28851             32.60463
        2.66074            0.28851             29.09159
        2.72485            0.28851             25.45903
        2.78896            0.28851             21.72186
        2.85308            0.28851             17.89544
        2.91719            0.28851             13.99550
        2.98131            0.28851             10.03806
        3.04542            0.28851              6.03938
        3.10953            0.28851              2.01589
        3.14159            0.28851              0.00000
        0.00000            0.35263              0.00000
        0.03206            0.35263              2.44707
        0.09617            0.35263              7.33115
        0.16029            0.35263             12.18509
        0.22440            0.35263             16.98894
        0.28851            0.35263             21.72296
        0.35263            0.35263             26.36770
        0.41674            0.35263             30.90408
        0.48086            0.35263             35.31347
        0.54497            0.35263             39.57774
        0.60908            0.35263             43.67934
        0.67320            0.35263             47.60147
        0.73731            0.35263             51.32796
        0.80143            0.35263             54.84354
        0.86554            0.35263             58.13373
        0.92966            0.35263             61.18504
        0.99377            0.35263             63.98492
        1.05788            0.35263             66.52185
        1.12200            0.35263             68.78544
        1.18611            0.35263             70.76637
        1.25023            0.35263             72.45650
        1.31434            0.35263             73.84888
        1.37845            0.35263             74.93782
        1.44257            0.35263             75.71880
        1.50668            0.35263             76.18865
        1.57080            0.35263             76.34541
        1.63491            0.35263             76.18845
        1.69902            0.35263             75.71843
        1.76314            0.35263             74.93726
        1.82725            0.35263             73.84815
        1.89137            0.35263             72.45559
        1.95548            0.35263             70.76530
        2.01959            0.35263             68.78423
        2.08371            0.35263             66.52052
        2.14782            0.35263             63.98346
        2.21194            0.35263             61.18348
        2.27605            0.35263             58.13210
        2.34017            0.35263             54.84185
        2.40428            0.35263             51.32624
        2.46839            0.35263             47.59974
        2.53251            0.35263             43.67764
        2.59662            0.35263             39.57608
        2.66074            0.35263             35.31189
        2.72485            0.35263             30.90263
        2.78896            0.35263             26.36638
        2.85308            0.35263             21.72181
        2.91719            0.35263             16.98799
        2.98131            0.35263             12.18438
        3.04542            0.35263              7.33070
        3.10953            0.35263              2.44692
        3.14159            0.35263              0.00000
        0.00000            0.41674              0.00000
        0.03206            0.41674              2.86808
        0.09617            0.41674              8.59243
        0.16029            0.41674             14.28145
        0.22440            0.41674             19.91177
        0.28851            0.41674             25.46025
        0.35263            0.41674             30.90409
        0.41674            0.41674             36.22092
        0.48086            0.41674             41.38891
        0.54497            0.41674             46.38682
        0.60908            0.41674             51.19408
        0.67320            0.41674             55.79097
        0.73731            0.41674             60.15859
        0.80143            0.41674             64.27899
        0.86554            0.41674             68.13525
        0.92966            0.41674             71.71152
        0.99377            0.41674             74.99310
        1.05788            0.41674             77.96650
        1.12200            0.41674             80.61951
        1.18611            0.41674             82.94125
        1.25023            0.41674             84.92216
        1.31434            0.41674             86.55411
        1.37845            0.41674             87.83037
        1.44257            0.41674             88.74572
        1.50668            0.41674             89.29640
        1.57080            0.41674             89.48013
        1.63491            0.41674             89.29618
        1.69902            0.41674             88.74529
        1.76314            0.41674             87.82973
        1.82725            0.41674             86.55325
        1.89137            0.41674             84.92110
        1.95548            0.41674             82.94002
        2.01959            0.41674             80.61812
        2.08371            0.41674             77.96494
        2.14782            0.41674             74.99140
        2.21194            0.41674             71.70971
        2.27605            0.41674             68.13335
        2.34017            0.41674             64.27704
        2.40428            0.41674             60.15660
        2.46839            0.41674             55.78897
        2.53251            0.41674             51.19210
        2.59662            0.41674             46.38489
        2.66074            0.41674             41.38709
        2.72485            0.41674             36.21923
        2.78896            0.41674             30.90256
        2.85308            0.41674             25.45892
        2.91719            0.41674             19.91067
        2.98131            0.41674             14.28062
        3.04542            0.41674              8.59191
        3.10953            0.41674              2.86790
        3.14159            0.41674              0.00000
        0.00000            0.48086              0.00000
        0.03206            0.48086              3.27729
        0.09617            0.48086              9.81839
        0.16029            0.48086             16.31911
        0.22440            0.48086             22.75276
        0.28851            0.48086             29.09291
        0.35263            0.48086             35.31347
        0.41674            0.48086             41.38891
        0.48086            0.48086             47.29427
        0.54497            0.48086             53.00528
        0.60908            0.48086             58.49845
        0.67320            0.48086             63.75123
        0.73731            0.48086             68.74201
        0.80143            0.48086             73.45032
        0.86554            0.48086             77.85677
        0.92966            0.48086             81.94331
        0.99377            0.48086             85.69312
        1.05788            0.48086             89.09077
        1.12200            0.48086             92.12232
        1.18611            0.48086             94.77532
        1.25023            0.48086             97.03886
        1.31434            0.48086             98.90366
        1.37845            0.48086            100.36202
        1.44257            0.48086            101.40798
        1.50668            0.48086            102.03722
        1.57080            0.48086            102.24718
        1.63491            0.48086            102.03698
        1.69902            0.48086            101.40749
        1.76314            0.48086            100.36129
        1.82725            0.48086             98.90269
        1.89137            0.48086             97.03767
        1.95548            0.48086             94.77392
        2.01959            0.48086             92.12073
        2.08371            0.48086             89.08900
        2.14782            0.48086             85.69118
        2.21194            0.48086             81.94126
        2.27605            0.48086             77.85464
        2.34017            0.48086             73.44810
        2.40428            0.48086             68.73976
        2.46839            0.48086             63.74896
        2.53251            0.48086             58.49622
        2.59662            0.48086             53.00311
        2.66074            0.48086             47.29222
        2.72485            0.48086             41.38701
        2.78896            0.48086             35.31175
        2.85308            0.48086             29.09140
        2.91719            0.48086             22.75154
        2.98131            0.48086             16.31819
        3.04542            0.48086              9.81781
        3.10953            0.48086              3.27709
        3.14159            0.48086              0.00000
        0.00000            0.54497              0.00000
        0.03206            0.54497              3.67304
        0.09617            0.54497             11.00400
        0.16029            0.54497             18.28972
        0.22440            0.54497             25.50026
        0.28851            0.54497             32.60600
        0.35263            0.54497             39.57774
        0.41674            0.54497             46.38682
        0.48086            0.54497             53.00528
        0.54497            0.54497             59.40591
        0.60908            0.54497             65.56241
        0.67320            0.54497             71.44949
        0.73731            0.54497             77.04294
        0.80143            0.54497             82.31979
        0.86554            0.54497             87.25837
        0.92966            0.54497             91.83838
        0.99377            0.54497             96.04099
        1.05788            0.54497             99.84892
        1.12200            0.54497            103.24654
        1.18611            0.54497            106.21992
        1.25023            0.54497            108.75680
        1.31434            0.54497            110.84676
        1.37845            0.54497            112.48123
        1.44257            0.54497            113.65350
        1.50668            0.54497            114.35873
        1.57080            0.54497            114.59405
        1.63491            0.54497            114.35846
        1.69902            0.54497            113.65295
        1.76314            0.54497            112.48042
        1.82725            0.54497            110.84570
        1.89137            0.54497            108.75547
        1.95548            0.54497            106.21835
        2.01959            0.54497            103.24478
        2.08371            0.54497             99.84695
        2.14782            0.54497             96.03886
        2.21194            0.54497             91.83611
        2.27605            0.54497             87.25599
        2.34017            0.54497             82.31734
        2.40428            0.54497             77.04043
        2.46839            0.54497             71.44698
        2.53251            0.54497             65.55994
        2.59662            0.54497             59.40351
        2.66074            0.54497             53.00301
        2.72485            0.54497             46.38471
        2.78896            0.54497             39.57583
        2.85308            0.54497             32.60434
        2.91719            0.54497             25.49891
        2.98131            0.54497             18.28870
        3.04542            0.54497             11.00336
        3.10953            0.54497              3.67282
        3.14159            0.54497              0.00000
        0.00000            0.60908              0.00000
        0.03206            0.60908              4.05369
        0.09617            0.60908             12.14439
        0.16029            0.60908             20.18515
        0.22440            0.60908             28.14296
        0.28851            0.60908             35.98510
        0.35263            0.60908             43.67934
        0.41674            0.60908             51.19408
        0.48086            0.60908             58.49844
        0.54497            0.60908             65.56241
        0.60908            0.60908             72.35692
        0.67320            0.60908             78.85410
        0.73731            0.60908             85.02723
        0.80143            0.60908             90.85094
        0.86554            0.60908             96.30131
        0.92966            0.60908            101.35596
        0.99377            0.60908            105.99412
        1.05788            0.60908            110.19669
        1.12200            0.60908            113.94643
        1.18611            0.60908            117.22793
        1.25023            0.60908            120.02772
        1.31434            0.60908            122.33428
        1.37845            0.60908            124.13815