  Title="2D heat conduction problem"
  Variables="x","y","T"
  ZONE I= 51       J= 51      F=POINT
        0.00000            0.00000              0.00000
        0.03206            0.00000              0.00000
        0.09617            0.00000              0.00000
        0.16029            0.00000              0.00000
        0.22440            0.00000              0.00000
        0.28851            0.00000              0.00000
        0.35263            0.00000              0.00000
        0.41674            0.00000              0.00000
        0.48086            0.00000              0.00000
        0.54497            0.00000              0.00000
        0.60908            0.00000              0.00000
        0.67320            0.00000              0.00000
        0.73731            0.00000              0.00000
        0.80143            0.00000              0.00000
        0.86554            0.00000              0.00000
        0.92966            0.00000              0.00000
        0.99377            0.00000              0.00000
        1.05788            0.00000              0.00000
        1.12200            0.00000              0.00000
        1.18611            0.00000              0.00000
        1.25023            0.00000              0.00000
        1.31434            0.00000              0.00000
        1.37845            0.00000              0.00000
        1.44257            0.00000              0.00000
        1.50668            0.00000              0.00000
        1.57080            0.00000              0.00000
        1.63491            0.00000              0.00000
        1.69902            0.00000              0.00000
        1.76314            0.00000              0.00000
        1.82725            0.00000              0.00000
        1.89137            0.00000              0.00000
        1.95548            0.00000              0.00000
        2.01959            0.00000              0.00000
        2.08371            0.00000              0.00000
        2.14782            0.00000              0.00000
        2.21194            0.00000              0.00000
        2.27605            0.00000              0.00000
        2.34017            0.00000              0.00000
        2.40428            0.00000              0.00000
        2.46839            0.00000              0.00000
        2.53251            0.00000              0.00000
        2.59662            0.00000              0.00000
        2.66074            0.00000              0.00000
        2.72485            0.00000              0.00000
        2.78896            0.00000              0.00000
        2.85308            0.00000              0.00000
        2.91719            0.00000              0.00000
        2.98131            0.00000              0.00000
        3.04542            0.00000              0.00000
        3.10953            0.00000              0.00000
        3.14159            0.00000              0.00000
        0.00000            0.03206              0.00000
        0.03206            0.03206              0.08367
        0.09617            0.03206              0.25067
        0.16029            0.03206              0.41663
        0.22440            0.03206              0.58088
        0.28851            0.03206              0.74275
        0.35263            0.03206              0.90156
        0.41674            0.03206              1.05667
        0.48086            0.03206              1.20743
        0.54497            0.03206              1.35323
        0.60908            0.03206              1.49347
        0.67320            0.03206              1.62758
        0.73731            0.03206              1.75499
        0.80143            0.03206              1.87520
        0.86554            0.03206              1.98769
        0.92966            0.03206              2.09202
        0.99377            0.03206              2.18775
        1.05788            0.03206              2.27449
        1.12200            0.03206              2.35189
        1.18611            0.03206              2.41962
        1.25023            0.03206              2.47741
        1.31434            0.03206              2.52501
        1.37845            0.03206              2.56225
        1.44257            0.03206              2.58895
        1.50668            0.03206              2.60501
        1.57080            0.03206              2.61037
        1.63491            0.03206              2.60500
        1.69902            0.03206              2.58893
        1.76314            0.03206              2.56222
        1.82725            0.03206              2.52498
        1.89137            0.03206              2.47737
        1.95548            0.03206              2.41957
        2.01959            0.03206              2.35184
        2.08371            0.03206              2.27444
        2.14782            0.03206              2.18769
        2.21194            0.03206              2.09195
        2.27605            0.03206              1.98762
        2.34017            0.03206              1.87512
        2.40428            0.03206              1.75492
        2.46839            0.03206              1.62750
        2.53251            0.03206              1.49340
        2.59662            0.03206              1.35316
        2.66074            0.03206              1.20736
        2.72485            0.03206              1.05660
        2.78896            0.03206              0.90150
        2.85308            0.03206              0.74270
        2.91719            0.03206              0.58084
        2.98131            0.03206              0.41660
        3.04542            0.03206              0.25065
        3.10953            0.03206              0.08366
        3.14159            0.03206              0.00000
        0.00000            0.09617              0.00000
        0.03206            0.09617              0.25067
        0.09617            0.09617              0.75097
        0.16029            0.09617              1.24818
        0.22440            0.09617              1.74026
        0.28851            0.09617              2.22519
        0.35263            0.09617              2.70097
        0.41674            0.09617              3.16565
        0.48086            0.09617              3.61732
        0.54497            0.09617              4.05413
        0.60908            0.09617              4.47428
        0.67320            0.09617              4.87604
        0.73731            0.09617              5.25776
        0.80143            0.09617              5.61787
        0.86554            0.09617              5.95490
        0.92966            0.09617              6.26746
        0.99377            0.09617              6.55426
        1.05788            0.09617              6.81413
        1.12200            0.09617              7.04599
        1.18611            0.09617              7.24891
        1.25023            0.09617              7.42203
        1.31434            0.09617              7.56466
        1.37845            0.09617              7.67620
        1.44257            0.09617              7.75620
        1.50668            0.09617              7.80432
        1.57080            0.09617              7.82038
        1.63491            0.09617              7.80430
        1.69902            0.09617              7.75615
        1.76314            0.09617              7.67613
        1.82725            0.09617              7.56456
        1.89137            0.09617              7.42191
        1.95548            0.09617              7.24877
        2.01959            0.09617              7.04584
        2.08371            0.09617              6.81395
        2.14782            0.09617              6.55407
        2.21194            0.09617              6.26726
        2.27605            0.09617              5.95469
        2.34017            0.09617              5.61765
        2.40428            0.09617              5.25754
        2.46839            0.09617              4.87582
        2.53251            0.09617              4.47406
        2.59662            0.09617              4.05392
        2.66074            0.09617              3.61712
        2.72485            0.09617              3.16547
        2.78896            0.09617              2.70080
        2.85308            0.09617              2.22504
        2.91719            0.09617              1.74014
        2.98131            0.09617              1.24809
        3.04542            0.09617              0.75091
        3.10953            0.09617              0.25065
        3.14159            0.09617              0.00000
        0.00000            0.16029              0.00000
        0.03206            0.16029              0.41663
        0.09617            0.16029              1.24818
        0.16029            0.16029              2.07459
        0.22440            0.16029              2.89248
        0.28851            0.16029              3.69847
        0.35263            0.16029              4.48927
        0.41674            0.16029              5.26162
        0.48086            0.16029              6.01234
        0.54497            0.16029              6.73836
        0.60908            0.16029              7.43668
        0.67320            0.16029              8.10445
        0.73731            0.16029              8.73890
        0.80143            0.16029              9.33745
        0.86554            0.16029              9.89762
        0.92966            0.16029             10.41713
        0.99377            0.16029             10.89382
        1.05788            0.16029             11.32574
        1.12200            0.16029             11.71113
        1.18611            0.16029             12.04839
        1.25023            0.16029             12.33614
        1.31434            0.16029             12.57320
        1.37845            0.16029             12.75859
        1.44257            0.16029             12.89155
        1.50668            0.16029             12.97154
        1.57080            0.16029             12.99823
        1.63491            0.16029             12.97150
        1.69902            0.16029             12.89147
        1.76314            0.16029             12.75847
        1.82725            0.16029             12.57304
        1.89137            0.16029             12.33595
        1.95548            0.16029             12.04816
        2.01959            0.16029             11.71087
        2.08371            0.16029             11.32546
        2.14782            0.16029             10.89351
        2.21194            0.16029             10.41679
        2.27605            0.16029              9.89727
        2.34017            0.16029              9.33709
        2.40428            0.16029              8.73854
        2.46839            0.16029              8.10408
        2.53251            0.16029              7.43633
        2.59662            0.16029              6.73801
        2.66074            0.16029              6.01202
        2.72485            0.16029              5.26131
        2.78896            0.16029              4.48900
        2.85308            0.16029              3.69824
        2.91719            0.16029              2.89228
        2.98131            0.16029              2.07444
        3.04542            0.16029              1.24808
        3.10953            0.16029              0.41660
        3.14159            0.16029              0.00000
        0.00000            0.22440              0.00000
        0.03206            0.22440              0.58088
        0.09617            0.22440              1.74026
        0.16029            0.22440              2.89248
        0.22440            0.22440              4.03281
        0.28851            0.22440              5.15656
        0.35263            0.22440              6.25912
        0.41674            0.22440              7.33596
        0.48086            0.22440              8.38265
        0.54497            0.22440              9.39489
        0.60908            0.22440             10.36852
        0.67320            0.22440             11.29954
        0.73731            0.22440             12.18413
        0.80143            0.22440             13.01864
        0.86554            0.22440             13.79966
        0.92966            0.22440             14.52397
        0.99377            0.22440             15.18860
        1.05788            0.22440             15.79080
        1.12200            0.22440             16.32812
        1.18611            0.22440             16.79834
        1.25023            0.22440             17.19954
        1.31434            0.22440             17.53006
        1.37845            0.22440             17.78854
        1.44257            0.22440             17.97392
        1.50668            0.22440             18.08544
        1.57080            0.22440             18.12265
        1.63491            0.22440             18.08538
        1.69902            0.22440             17.97380
        1.76314            0.22440             17.78837
        1.82725            0.22440             17.52983
        1.89137            0.22440             17.19927
        1.95548            0.22440             16.79803
        2.01959            0.22440             16.32776
        2.08371            0.22440             15.79040
        2.14782            0.22440             15.18816
        2.21194            0.22440             14.52351
        2.27605            0.22440             13.79918
        2.34017            0.22440             13.01815
        2.40428            0.22440             12.18362
        2.46839            0.22440             11.29904
        2.53251            0.22440             10.36802
        2.59662            0.22440              9.39441
        2.66074            0.22440              8.38220
        2.72485            0.22440              7.33554
        2.78896            0.22440              6.25874
        2.85308            0.22440              5.15623
        2.91719            0.22440              4.03254
        2.98131            0.22440              2.89227
        3.04542            0.22440              1.74013
        3.10953            0.22440              0.58084
        3.14159            0.22440              0.00000
        0.00000            0.28851              0.00000
        0.03206            0.28851              0.74275
        0.09617            0.28851              2.22519
        0.16029            0.28851              3.69847
        0.22440            0.28851              5.15656
        0.28851            0.28851              6.59345
        0.35263            0.28851              8.00325
        0.41674            0.28851              9.38015
        0.48086            0.28851             10.71850
        0.54497            0.28851             12.01281
        0.60908            0.28851             13.25774
        0.67320            0.28851             14.44820
        0.73731            0.28851             15.57928
        0.80143            0.28851             16.64634
        0.86554            0.28851             17.64499
        0.92966            0.28851             18.57113
        0.99377            0.28851             19.42096
        1.05788            0.28851             20.19097
        1.12200            0.28851             20.87802
        1.18611            0.28851             21.47927
        1.25023            0.28851             21.99226
        1.31434            0.28851             22.41487
        1.37845            0.28851             22.74538
        1.44257            0.28851             22.98242
        1.50668            0.28851             23.12502
        1.57080            0.28851             23.17260
        1.63491            0.28851             23.12495
        1.69902            0.28851             22.98228
        1.76314            0.28851             22.74517
        1.82725            0.28851             22.41459
        1.89137            0.28851             21.99192
        1.95548            0.28851             21.47887
        2.01959            0.28851             20.87756
        2.08371            0.28851             20.19047
        2.14782            0.28851             19.42041
        2.21194            0.28851             18.57055
        2.27605            0.28851             17.64438
        2.34017            0.28851             16.64571
        2.40428            0.28851             15.57864
        2.46839            0.28851             14.44756
        2.53251            0.28851             13.25712
        2.59662            0.28851             12.01220
        2.66074            0.28851             10.71793
        2.72485            0.28851              9.37962
        2.78896            0.28851              8.00277
        2.85308            0.28851              6.59304
        2.91719            0.28851              5.15622
        2.98131            0.28851              3.69822
        3.04542            0.28851              2.22503
        3.10953            0.28851              0.74269
        3.14159            0.28851              0.00000
        0.00000            0.35263              0.00000
        0.03206            0.35263              0.90156
        0.09617            0.35263              2.70097
        0.16029            0.35263              4.48927
        0.22440            0.35263              6.25912
        0.28851            0.35263              8.00325
        0.35263            0.35263              9.71448
        0.41674            0.35263             11.38579
        0.48086            0.35263             13.01030
        0.54497            0.35263             14.58135
        0.60908            0.35263             16.09248
        0.67320            0.35263             17.53747
        0.73731            0.35263             18.91039
        0.80143            0.35263             20.20561
        0.86554            0.35263             21.41779
        0.92966            0.35263             22.54195
        0.99377            0.35263             23.57349
        1.05788            0.35263             24.50815
        1.12200            0.35263             25.34210
        1.18611            0.35263             26.07191
        1.25023            0.35263             26.69458
        1.31434            0.35263             27.20756
        1.37845            0.35263             27.60873
        1.44257            0.35263             27.89646
        1.50668            0.35263             28.06956
        1.57080            0.35263             28.12730
        1.63491            0.35263             28.06947
        1.69902            0.35263             27.89629
        1.76314            0.35263             27.60848
        1.82725            0.35263             27.20722
        1.89137            0.35263             26.69417
        1.95548            0.35263             26.07142
        2.01959            0.35263             25.34155
        2.08371            0.35263             24.50754
        2.14782            0.35263             23.57283
        2.21194            0.35263             22.54125
        2.27605            0.35263             21.41706
        2.34017            0.35263             20.20485
        2.40428            0.35263             18.90963
        2.46839            0.35263             17.53671
        2.53251            0.35263             16.09172
        2.59662            0.35263             14.58062
        2.66074            0.35263             13.00961
        2.72485            0.35263             11.38515
        2.78896            0.35263              9.71390
        2.85308            0.35263              8.00275
        2.91719            0.35263              6.25871
        2.98131            0.35263              4.48896
        3.04542            0.35263              2.70078
        3.10953            0.35263              0.90149
        3.14159            0.35263              0.00000
        0.00000            0.41674              0.00000
        0.03206            0.41674              1.05667
        0.09617            0.41674              3.16565
        0.16029            0.41674              5.26162
        0.22440            0.41674              7.33596
        0.28851            0.41674              9.38015
        0.35263            0.41674             11.38578
        0.41674            0.41674             13.34463
        0.48086            0.41674             15.24863
        0.54497            0.41674             17.08997
        0.60908            0.41674             18.86108
        0.67320            0.41674             20.55467
        0.73731            0.41674             22.16380
        0.80143            0.41674             23.68184
        0.86554            0.41674             25.10257
        0.92966            0.41674             26.42015
        0.99377            0.41674             27.62915
        1.05788            0.41674             28.72461
        1.12200            0.41674             29.70204
        1.18611            0.41674             30.55741
        1.25023            0.41674             31.28721
        1.31434            0.41674             31.88844
        1.37845            0.41674             32.35863
        1.44257            0.41674             32.69586
        1.50668            0.41674             32.89874
        1.57080            0.41674             32.96642
        1.63491            0.41674             32.89863
        1.69902            0.41674             32.69566
        1.76314            0.41674             32.35833
        1.82725            0.41674             31.88805
        1.89137            0.41674             31.28672
        1.95548            0.41674             30.55684
        2.01959            0.41674             29.70139
        2.08371            0.41674             28.72390
        2.14782            0.41674             27.62838
        2.21194            0.41674             26.41933
        2.27605            0.41674             25.10172
        2.34017            0.41674             23.68097
        2.40428            0.41674             22.16291
        2.46839            0.41674             20.55378
        2.53251            0.41674             18.86020
        2.59662            0.41674             17.08912
        2.66074            0.41674             15.24783
        2.72485            0.41674             13.34389
        2.78896            0.41674             11.38512
        2.85308            0.41674              9.37957
        2.91719            0.41674              7.33548
        2.98131            0.41674              5.26126
        3.04542            0.41674              3.16543
        3.10953            0.41674              1.05659
        3.14159            0.41674              0.00000
        0.00000            0.48086              0.00000
        0.03206            0.48086              1.20743
        0.09617            0.48086              3.61732
        0.16029            0.48086              6.01234
        0.22440            0.48086              8.38265
        0.28851            0.48086             10.71850
        0.35263            0.48086             13.01030
        0.41674            0.48086             15.24863
        0.48086            0.48086             17.42430
        0.54497            0.48086             19.52837
        0.60908            0.48086             21.55217
        0.67320            0.48086             23.48741
        0.73731            0.48086             25.32612
        0.80143            0.48086             27.06077
        0.86554            0.48086             28.68420
        0.92966            0.48086             30.18977
        0.99377            0.48086             31.57127
        1.05788            0.48086             32.82303
        1.12200            0.48086             33.93992
        1.18611            0.48086             34.91733
        1.25023            0.48086             35.75126
        1.31434            0.48086             36.43828
        1.37845            0.48086             36.97557
        1.44257            0.48086             37.36091
        1.50668            0.48086             37.59272
        1.57080            0.48086             37.67006
        1.63491            0.48086             37.59261
        1.69902            0.48086             37.36068
        1.76314            0.48086             36.97523
        1.82725            0.48086             36.43784
        1.89137            0.48086             35.75071
        1.95548            0.48086             34.91669
        2.01959            0.48086             33.93919
        2.08371            0.48086             32.82223
        2.14782            0.48086             31.57040
        2.21194            0.48086             30.18884
        2.27605            0.48086             28.68324
        2.34017            0.48086             27.05977
        2.40428            0.48086             25.32512
        2.46839            0.48086             23.48640
        2.53251            0.48086             21.55118
        2.59662            0.48086             19.52741
        2.66074            0.48086             17.42340
        2.72485            0.48086             15.24780
        2.78896            0.48086             13.00955
        2.85308            0.48086             10.71785
        2.91719            0.48086              8.38212
        2.98131            0.48086              6.01194
        3.04542            0.48086              3.61707
        3.10953            0.48086              1.20734
        3.14159            0.48086              0.00000
        0.00000            0.54497              0.00000
        0.03206            0.54497              1.35323
        0.09617            0.54497              4.05413
        0.16029            0.54497              6.73836
        0.22440            0.54497              9.39489
        0.28851            0.54497             12.01281
        0.35263            0.54497             14.58135
        0.41674            0.54497             17.08997
        0.48086            0.54497             19.52837
        0.54497            0.54497             21.88650
        0.60908            0.54497             24.15469
        0.67320            0.54497             26.32362
        0.73731            0.54497             28.38437
        0.80143            0.54497             30.32848
        0.86554            0.54497             32.14796
        0.92966            0.54497             33.83532
        0.99377            0.54497             35.38365
        1.05788            0.54497             36.78658
        1.12200            0.54497             38.03833
        1.18611            0.54497             39.13377
        1.25023            0.54497             40.06841
        1.31434            0.54497             40.83838
        1.37845            0.54497             41.44054
        1.44257            0.54497             41.87242
        1.50668            0.54497             42.13223
        1.57080            0.54497             42.21891
        1.63491            0.54497             42.13210
        1.69902            0.54497             41.87217
        1.76314            0.54497             41.44017
        1.82725            0.54497             40.83788
        1.89137            0.54497             40.06779
        1.95548            0.54497             39.13305
        2.01959            0.54497             38.03752
        2.08371            0.54497             36.78568
        2.14782            0.54497             35.38268
        2.21194            0.54497             33.83429
        2.27605            0.54497             32.14688
        2.34017            0.54497             30.32738
        2.40428            0.54497             28.38325
        2.46839            0.54497             26.32250
        2.53251            0.54497             24.15359
        2.59662            0.54497             21.88544
        2.66074            0.54497             19.52736
        2.72485            0.54497             17.08905
        2.78896            0.54497             14.58052
        2.85308            0.54497             12.01208
        2.91719            0.54497              9.39430
        2.98131            0.54497              6.73792
        3.04542            0.54497              4.05385
        3.10953            0.54497              1.35314
        3.14159            0.54497              0.00000
        0.00000            0.60908              0.00000
        0.03206            0.60908              1.49347
        0.09617            0.60908              4.47427
        0.16029            0.60908              7.43668
        0.22440            0.60908             10.36852
        0.28851            0.60908             13.25774
        0.35263            0.60908             16.09248
        0.41674            0.60908             18.86108
        0.48086            0.60908             21.55217
        0.54497            0.60908             24.15469
        0.60908            0.60908             26.65794
        0.67320            0.60908             29.05164
        0.73731            0.60908             31.32596
        0.80143            0.60908             33.47154
        0.86554            0.60908             35.47957
        0.92966            0.60908             37.34181
        0.99377            0.60908             39.05060
        1.05788            0.60908             40.59891
        1.12200            0.60908             41.98039
        1.18611            0.60908             43.18936
        1.25023            0.60908             44.22085
        1.31434            0.60908             45.07062
        1.37845            0.60908             45.73520