 title="contour"
 variables="x","y","u","v",
 "p","den","mach","entropy","vmu",
 zone i=          88  j=          49  f=point
  1.9230749E-04 -7.3469398E-03   375.5717      0.1892414       5179656.    
   5.800763      0.3540786       565340.0      0.0000000E+00
  5.7692250E-04 -7.3469398E-03   397.5461      0.5998974       5053758.    
   5.688073      0.3757319       565403.4      0.0000000E+00
  9.6153747E-04 -7.3469398E-03   398.2335       1.185444       5025576.    
   5.662846      0.3765987       565408.2      0.0000000E+00
  1.3461524E-03 -7.3469398E-03   395.1331       1.897083       5030524.    
   5.667245      0.3736306       565411.4      0.0000000E+00
  1.7307674E-03 -7.3469398E-03   386.8348       2.747474       5055112.    
   5.689186      0.3656040       565415.5      0.0000000E+00
  2.1153826E-03 -7.3469398E-03   376.2436       3.757872       5081792.    
   5.712976      0.3554089       565418.8      0.0000000E+00
  2.4999999E-03 -7.3469398E-03   363.2878       4.969317       5108880.    
   5.737097      0.3429963       565423.1      0.0000000E+00
  2.8846173E-03 -7.3469398E-03   346.2171       6.462658       5144824.    
   5.769197      0.3266715       565412.2      0.0000000E+00
  3.2692323E-03 -7.3469398E-03   324.2944       8.382366       5189214.    
   5.809265      0.3057800       565339.0      0.0000000E+00
  3.6538474E-03 -7.3469398E-03   296.4655       11.03507       5241258.    
   5.855277      0.2793480       565360.8      0.0000000E+00
  4.0384624E-03 -7.3469398E-03   260.4529       15.29253       5298263.    
   5.899942      0.2452722       566063.8      0.0000000E+00
  4.4230772E-03 -7.3469398E-03   216.8312       23.90061       5349036.    
   5.936781      0.2047372       567023.6      0.0000000E+00
  4.8076920E-03 -7.3469398E-03   140.5232       47.46936       5342209.    
   5.925354      0.1391630       567676.4      0.0000000E+00
  5.0721699E-03 -7.2244895E-03   99.99348       103.6074       5575873.    
   6.127731      0.1344749       567956.8      0.0000000E+00
  5.2165072E-03 -6.9795912E-03   134.4458       163.9489       5416828.    
   5.987412      0.1985867       568098.6      0.0000000E+00
  5.3608450E-03 -6.7346934E-03   164.2139       218.9652       5329590.    
   5.909142      0.2567472       568294.0      0.0000000E+00
  5.5051828E-03 -6.4897966E-03   191.7842       267.6516       5242000.    
   5.830517      0.3093653       568468.1      0.0000000E+00
  5.6495201E-03 -6.2448983E-03   222.0354       314.3484       5142824.    
   5.740644      0.3622374       568736.6      0.0000000E+00
  5.7938574E-03 -6.0000001E-03   258.8477       363.5398       5023028.    
   5.630399      0.4209264       569228.0      0.0000000E+00
  5.9381947E-03 -5.7551013E-03   308.2089       420.9141       4863892.    
   5.481133      0.4933682       570173.9      0.0000000E+00
  6.0825325E-03 -5.5102035E-03   381.2619       492.9809       4632324.    
   5.257586      0.5914840       572279.2      0.0000000E+00
  6.2268698E-03 -5.2653062E-03   504.0503       568.5273       4298234.    
   4.917680      0.7240139       577659.7      0.0000000E+00
  6.3712071E-03 -5.0204084E-03   806.5032       613.0823       3605899.    
   4.182021      0.9719453       594383.8      0.0000000E+00
  6.6909217E-03 -4.9635051E-03   1181.769       529.4780       1250013.    
   1.681908       1.338183       649237.5      0.0000000E+00
  7.1860175E-03 -5.0945948E-03   1203.902       262.0673       656696.4    
  0.9439209       1.315965       706229.5      0.0000000E+00
  7.6811109E-03 -5.2256845E-03   1104.142      -120.6162       721342.8    
   1.000209       1.165172       721153.2      0.0000000E+00
  8.1762047E-03 -5.3567756E-03   944.8579      -262.6638       917219.4    
   1.206028       1.001815       724373.8      0.0000000E+00
  8.6712996E-03 -5.4878653E-03   884.0948      -259.1230       1101043.    
   1.413351      0.9298912       712015.5      0.0000000E+00
  9.1663934E-03 -5.6189559E-03   869.4280      -251.2701       1218034.    
   1.538145      0.9060175       708015.9      0.0000000E+00
  9.6614873E-03 -5.7500475E-03   868.1506      -244.5159       1290929.    
   1.623926      0.9011941       700791.8      0.0000000E+00
  1.0156582E-02 -5.8811358E-03   874.1664      -243.3078       1339558.    
   1.682183      0.9058722       695602.8      0.0000000E+00
  1.0651678E-02 -6.0122251E-03   887.3876      -244.6944       1363432.    
   1.712300      0.9189983       692345.6      0.0000000E+00
  1.1146771E-02 -6.1433148E-03   905.4837      -247.9808       1371064.    
   1.732583      0.9401956       685967.2      0.0000000E+00
  1.1641864E-02 -6.2744049E-03   924.7748      -252.5282       1371845.    
   1.742187      0.9624150       681593.7      0.0000000E+00
  1.2136958E-02 -6.4054946E-03   945.6932      -257.3330       1367237.    
   1.740088      0.9850079       680337.2      0.0000000E+00
  1.2632051E-02 -6.5365862E-03   969.8077      -262.4885       1353828.    
   1.729696       1.011709       678768.1      0.0000000E+00
  1.3127144E-02 -6.6676778E-03   997.3073      -268.3621       1330293.    
   1.708619       1.042732       677351.6      0.0000000E+00
  1.3622239E-02 -6.7987675E-03   1026.748      -274.7706       1299121.    
   1.678837       1.076410       676299.0      0.0000000E+00
  1.4117334E-02 -6.9298577E-03   1056.343      -280.8581       1263914.    
   1.644143       1.110613       675513.1      0.0000000E+00
  1.4612429E-02 -7.0609474E-03   1085.313      -286.7265       1226842.    
   1.606688       1.144436       675017.3      0.0000000E+00
  1.5107522E-02 -7.1920375E-03   1113.545      -292.3728       1188646.    
   1.567296       1.177736       674780.1      0.0000000E+00
  1.5602617E-02 -7.3231277E-03   1141.013      -297.8184       1149736.    
   1.526523       1.210513       674733.1      0.0000000E+00
  1.6097711E-02 -7.4542188E-03   1167.692      -303.1139       1110560.    
   1.484955       1.242765       674812.7      0.0000000E+00
  1.6592804E-02 -7.5853094E-03   1193.579      -308.2969       1071526.    
   1.443151       1.274516       674947.4      0.0000000E+00
  1.7087901E-02 -7.7164001E-03   1218.680      -313.4049       1033019.    
   1.401692       1.305818       675034.8      0.0000000E+00
  1.7582994E-02 -7.8474898E-03   1242.955      -318.4704       995428.0    
   1.361166       1.336681       674965.9      0.0000000E+00
  1.8078087E-02 -7.9785790E-03   1266.352      -323.4591       959074.8    
   1.321885       1.366986       674758.4      0.0000000E+00
  1.8573180E-02 -8.1096673E-03   1288.767      -328.2569       924027.1    
   1.283699       1.396458       674560.5      0.0000000E+00
  1.9068275E-02 -8.2407584E-03   1310.143      -332.8697       890406.4    
   1.246637       1.424928       674459.4      0.0000000E+00
  1.9563369E-02 -8.3718505E-03   1330.558      -337.3271       858232.9    
   1.210766       1.452455       674449.4      0.0000000E+00
  2.0058462E-02 -8.5029397E-03   1350.130      -341.6105       827408.2    
   1.176067       1.479181       674490.1      0.0000000E+00
  2.0553557E-02 -8.6340299E-03   1368.930      -345.7488       797897.1    
   1.142458       1.505118       674634.1      0.0000000E+00
  2.1048650E-02 -8.7651191E-03   1387.025      -349.7409       769629.1    
   1.109886       1.530321       674886.4      0.0000000E+00
  2.1543745E-02 -8.8962102E-03   1404.446      -353.6073       742566.7    
   1.078359       1.554821       675232.8      0.0000000E+00
  2.2038842E-02 -9.0273004E-03   1421.220      -357.3633       716698.7    
   1.047922       1.578648       675650.4      0.0000000E+00
  2.2533936E-02 -9.1583915E-03   1437.380      -361.0190       691987.0    
   1.018583       1.601840       676118.1      0.0000000E+00
  2.3029029E-02 -9.2894826E-03   1452.957      -364.5790       668397.8    
  0.9903433       1.624432       676620.1      0.0000000E+00
  2.3524124E-02 -9.4205718E-03   1467.976      -368.0500       645886.9    
  0.9631846       1.646449       677146.2      0.0000000E+00
  2.4019217E-02 -9.5516620E-03   1482.469      -371.4318       624416.5    
  0.9370911       1.667918       677687.2      0.0000000E+00
  2.4514312E-02 -9.6827522E-03   1496.468      -374.7238       603933.6    
  0.9120212       1.688869       678239.4      0.0000000E+00
  2.5009403E-02 -9.8138424E-03   1509.994      -377.9309       584386.6    
  0.8879321       1.709321       678799.8      0.0000000E+00
  2.5504498E-02 -9.9449307E-03   1523.077      -381.0497       565738.4    
  0.8647961       1.729294       679366.8      0.0000000E+00
  2.5999593E-02 -1.0076022E-02   1535.748      -384.0851       547923.2    
  0.8425449       1.748823       679942.9      0.0000000E+00
  2.6494689E-02 -1.0207112E-02   1548.025      -387.0431       530904.2    
  0.8211467       1.767917       680527.9      0.0000000E+00
  2.6989779E-02 -1.0338201E-02   1559.924      -389.9260       514641.5    
  0.8005644       1.786589       681122.9      0.0000000E+00
  2.7484873E-02 -1.0469292E-02   1571.466      -392.7349       499094.8    
  0.7807575       1.804855       681730.5      0.0000000E+00
  2.7979970E-02 -1.0600383E-02   1582.670      -395.4706       484222.7    
  0.7616829       1.822726       682353.8      0.0000000E+00
  2.8475063E-02 -1.0731473E-02   1593.549      -398.1348       469989.4    
  0.7433064       1.840214       682993.5      0.0000000E+00
  2.8970158E-02 -1.0862564E-02   1604.118      -400.7291       456358.2    
  0.7255912       1.857332       683650.2      0.0000000E+00
  2.9465251E-02 -1.0993655E-02   1614.392      -403.2537       443298.3    
  0.7085075       1.874090       684324.4      0.0000000E+00
  2.9960347E-02 -1.1124744E-02   1624.386      -405.7171       430773.1    
  0.6920211       1.890514       685012.0      0.0000000E+00
  3.0455440E-02 -1.1255835E-02   1634.112      -408.1279       418752.6    
  0.6761059       1.906622       685707.6      0.0000000E+00
  3.0950533E-02 -1.1386924E-02   1643.582      -410.4842       407216.3    
  0.6607456       1.922425       686407.4      0.0000000E+00
  3.1445626E-02 -1.1518015E-02   1652.811      -412.7881       396134.0    
  0.6459128       1.937950       687104.9      0.0000000E+00
  3.1940721E-02 -1.1649106E-02   1661.794      -415.0445       385491.3    
  0.6315978       1.953191       687795.7      0.0000000E+00
  3.2435816E-02 -1.1780196E-02   1670.513      -417.2552       375284.6    
  0.6178073       1.968124       688471.6      0.0000000E+00
  3.2930911E-02 -1.1911287E-02   1678.916      -419.4221       365516.1    
  0.6045546       1.982687       689124.6      0.0000000E+00
  3.3426005E-02 -1.2042377E-02   1686.976      -421.5316       356183.8    
  0.5918498       1.996843       689743.6      0.0000000E+00
  3.3921096E-02 -1.2173464E-02   1694.811      -423.5646       347222.8    
  0.5796050       2.010732       690337.9      0.0000000E+00
  3.4416191E-02 -1.2304554E-02   1702.741      -425.5014       338438.7    
  0.5675317       2.024752       690959.2      0.0000000E+00
  3.4911282E-02 -1.2435645E-02   1711.648      -427.1893       329598.4    
  0.5553299       2.040016       691593.4      0.0000000E+00
  3.5406377E-02 -1.2566735E-02   1721.717      -429.2972       320323.1    
  0.5426235       2.057448       692022.2      0.0000000E+00
  3.5901476E-02 -1.2697826E-02   1732.662      -432.2104       311513.3    
  0.5303248       2.075723       692713.7      0.0000000E+00
  3.6396567E-02 -1.2828917E-02   1740.702      -434.6861       304956.7    
  0.5202602       2.087691       694704.6      0.0000000E+00
  3.6891665E-02 -1.2960006E-02   1740.812      -438.2242       299186.5    
  0.5127722       2.093631       694124.2      0.0000000E+00
  3.7386756E-02 -1.3091097E-02   1738.400      -441.8917       296651.4    
  0.5109901       2.097219       691268.2      0.0000000E+00
  3.7881851E-02 -1.3222188E-02   1733.053      -445.8861       296663.7    
  0.5118178       2.093970       689888.6      0.0000000E+00
  3.8376946E-02 -1.3353277E-02   1718.945      -446.3023       297979.1    
  0.5154102       2.080781       686867.5      0.0000000E+00
  1.9230749E-04 -7.0408178E-03   375.8316      0.7512565       5177804.    
   5.799095      0.3543367       565342.7      0.0000000E+00
  5.7692250E-04 -7.0408178E-03   397.8502       2.218895       5050779.    
   5.685393      0.3760470       565405.7      0.0000000E+00
  9.6153747E-04 -7.0408178E-03   398.5215       4.111981       5022180.    
   5.659796      0.3769153       565409.8      0.0000000E+00
  1.3461524E-03 -7.0408178E-03   395.4674       6.331172       5026744.    
   5.663856      0.3740191       565412.5      0.0000000E+00
  1.7307674E-03 -7.0408178E-03   387.2603       8.991855       5050626.    
   5.685171      0.3661287       565416.3      0.0000000E+00
  2.1153826E-03 -7.0408178E-03   376.7766       12.15104       5076556.    
   5.708299      0.3561173       565419.4      0.0000000E+00
  2.4999999E-03 -7.0408178E-03   363.9729       15.94252       5102666.    
   5.731554      0.3439835       565423.6      0.0000000E+00
  2.8846173E-03 -7.0408178E-03   347.1418       20.64513       5137130.    
   5.762351      0.3281164       565411.9      0.0000000E+00
  3.2692323E-03 -7.0408178E-03   325.5592       26.70782       5179391.    
   5.800528      0.3079609       565339.9      0.0000000E+00
  3.6538474E-03 -7.0408178E-03   298.1947       34.90835       5228716.    
   5.844091      0.2827687       565368.5      0.0000000E+00
  4.0384624E-03 -7.0408178E-03   262.8641       46.80319       5282814.    
   5.886548      0.2510850       566031.9      0.0000000E+00
  4.4230772E-03 -7.0408178E-03   221.7852       64.85226       5334458.    
   5.924976      0.2169508       566898.3      0.0000000E+00
  4.8076920E-03 -7.0408178E-03   158.8047       95.70413       5318044.    
   5.906259      0.1740751       567411.6      0.0000000E+00
  5.0721699E-03 -6.9234697E-03   129.3446       136.8556       5394356.    
   5.972048      0.1765114       567576.4      0.0000000E+00
  5.2165072E-03 -6.6887755E-03   154.7166       180.7478       5251442.    
   5.845114      0.2236181       567700.6      0.0000000E+00
  5.3608450E-03 -6.4540813E-03   179.3078       228.1022       5160126.    
   5.762830      0.2731567       567883.4      0.0000000E+00
  5.5051828E-03 -6.2193889E-03   206.2384       274.9256       5065208.    
   5.677289      0.3241494       568040.9      0.0000000E+00
  5.6495201E-03 -5.9846947E-03   238.0327       322.2963       4947956.    
   5.571007      0.3787502       568262.9      0.0000000E+00
  5.7938574E-03 -5.7499995E-03   277.4553       373.1538       4793508.    
   5.429663      0.4408873       568642.8      0.0000000E+00
  5.9381947E-03 -5.5153049E-03   330.8435       431.8283       4580240.    
   5.231877      0.5179598       569350.7      0.0000000E+00
  6.0825325E-03 -5.2806106E-03   412.4894       504.2865       4271520.    
   4.939707      0.6241494       570845.9      0.0000000E+00
  6.2268698E-03 -5.0459183E-03   549.4340       567.5274       3800652.    
   4.485149      0.7644591       573613.3      0.0000000E+00
  6.3712071E-03 -4.8112250E-03   826.2978       573.5743       2997042.    
   3.674715      0.9922428       581448.2      0.0000000E+00
  6.6887769E-03 -4.7572786E-03   1139.306       413.4788       1722642.    
   2.223839       1.226809       629281.5      0.0000000E+00
  7.1795820E-03 -4.8840800E-03   1173.885       78.86529       1040699.    
   1.385615       1.209419       690010.4      0.0000000E+00
  7.6703886E-03 -5.0108801E-03   1137.988      -229.5437       951528.9    
   1.272950       1.196209       702036.4      0.0000000E+00
  8.1611946E-03 -5.1376810E-03   1062.863      -319.1755       975635.1    
   1.295239       1.139127       704249.7      0.0000000E+00
  8.6519998E-03 -5.2644825E-03   983.5670      -311.0578       1071944.    
   1.398586       1.049729       702430.9      0.0000000E+00
  9.1428049E-03 -5.3912848E-03   940.3366      -283.4169       1183600.    
   1.525347      0.9932552       695280.9      0.0000000E+00
  9.6336100E-03 -5.5180877E-03   918.8759      -267.6500       1266278.    
   1.616610      0.9633704       691331.6      0.0000000E+00
  1.0124415E-02 -5.6448868E-03   917.2971      -264.3275       1325249.    
   1.681139      0.9578538       688710.9      0.0000000E+00
  1.0615220E-02 -5.7716882E-03   923.2394      -264.1458       1357422.    
   1.717746      0.9623567       686541.3      0.0000000E+00
  1.1106024E-02 -5.8984896E-03   936.3480      -266.6937       1371359.    
   1.743570      0.9779888       680671.7      0.0000000E+00
  1.1596830E-02 -6.0252897E-03   953.1331      -270.2147       1373822.    
   1.755331      0.9976299       676142.2      0.0000000E+00
  1.2087636E-02 -6.1520915E-03   971.7866      -273.4706       1370431.    
   1.754663       1.017661       674796.7      0.0000000E+00
  1.2578439E-02 -6.2788939E-03   993.2621      -276.6505       1359730.    
   1.747318       1.041268       673075.9      0.0000000E+00
  1.3069244E-02 -6.4056949E-03   1017.944      -280.5568       1340074.    
   1.730545       1.068966       671457.4      0.0000000E+00
  1.3560049E-02 -6.5324958E-03   1045.041      -285.3741       1312334.    
   1.704807       1.099970       670090.4      0.0000000E+00
  1.4050855E-02 -6.6592973E-03   1073.156      -290.7848       1279377.    
   1.673298       1.132791       668800.1      0.0000000E+00
  1.4541661E-02 -6.7860982E-03   1101.248      -296.1068       1243876.    
   1.638552       1.166001       667662.9      0.0000000E+00
  1.5032467E-02 -6.9129001E-03   1128.933      -301.0962       1206918.    
   1.601554       1.199047       666738.6      0.0000000E+00
  1.5523272E-02 -7.0397002E-03   1156.027      -305.9169       1169155.    
   1.562957       1.231736       666037.7      0.0000000E+00
  1.6014077E-02 -7.1665025E-03   1182.455      -310.6598       1130935.    
   1.523157       1.263999       665548.1      0.0000000E+00
  1.6504882E-02 -7.2933054E-03   1208.193      -315.3912       1092530.    
   1.482476       1.295815       665255.8      0.0000000E+00
  1.6995687E-02 -7.4201045E-03   1233.193      -320.1527       1054169.    
   1.441222       1.327148       665134.6      0.0000000E+00
  1.7486490E-02 -7.5469059E-03   1257.294      -324.9555       1016272.    
   1.399969       1.357835       665121.7      0.0000000E+00
  1.7977297E-02 -7.6737069E-03   1280.313      -329.7012       979525.2    
   1.359625       1.387635       665131.6      0.0000000E+00
  1.8468102E-02 -7.8005074E-03   1302.235      -334.2764       944475.9    
   1.320927       1.416461       665094.8      0.0000000E+00
  1.8958908E-02 -7.9273088E-03   1323.166      -338.6575       911081.0    
   1.283856       1.444398       665007.1      0.0000000E+00
  1.9449711E-02 -8.0541121E-03   1343.221      -342.8529       879122.0    
   1.248120       1.471538       664914.9      0.0000000E+00
  1.9940516E-02 -8.1809117E-03   1362.492      -346.8878       848420.6    
   1.213457       1.497937       664875.4      0.0000000E+00
  2.0431323E-02 -8.3077140E-03   1381.111      -350.6703       818889.8    
   1.179835       1.523728       664860.5      0.0000000E+00
  2.0922126E-02 -8.4345145E-03   1399.107      -354.2408       790534.6    
   1.147282       1.548933       664869.5      0.0000000E+00
  2.1412935E-02 -8.5613159E-03   1416.477      -357.6701       763360.3    
   1.115806       1.573533       664917.2      0.0000000E+00
  2.1903738E-02 -8.6881174E-03   1433.228      -361.0029       737346.6    
   1.085395       1.597517       665014.2      0.0000000E+00
  2.2394545E-02 -8.8149188E-03   1449.378      -364.2630       712455.5    
   1.056026       1.620895       665162.8      0.0000000E+00
  2.2885349E-02 -8.9417202E-03   1464.952      -367.4590       688647.4    
   1.027678       1.643683       665360.8      0.0000000E+00
  2.3376154E-02 -9.0685226E-03   1479.977      -370.5944       665883.7    
   1.000335       1.665901       665602.6      0.0000000E+00
  2.3866961E-02 -9.1953222E-03   1494.476      -373.6667       644125.0    
  0.9739792       1.687568       665882.4      0.0000000E+00
  2.4357764E-02 -9.3221236E-03   1508.479      -376.6738       623331.5    
  0.9485878       1.708706       666195.0      0.0000000E+00
  2.4848571E-02 -9.4489241E-03   1522.009      -379.6178       603458.8    
  0.9241326       1.729340       666534.1      0.0000000E+00
  2.5339374E-02 -9.5757246E-03   1535.092      -382.4949       584467.6    
  0.9005869       1.749489       666896.1      0.0000000E+00
  2.5830178E-02 -9.7025270E-03   1547.754      -385.3089       566312.6    
  0.8779142       1.769179       667277.6      0.0000000E+00
  2.6320985E-02 -9.8293293E-03   1560.017      -388.0620       548951.1    
  0.8560792       1.788429       667676.6      0.0000000E+00
  2.6811790E-02 -9.9561317E-03   1571.904      -390.7541       532342.1    
  0.8350456       1.807261       668091.5      0.0000000E+00
  2.7302593E-02 -1.0082932E-02   1583.433      -393.3847       516446.9    
  0.8147777       1.825687       668523.1      0.0000000E+00
  2.7793402E-02 -1.0209732E-02   1594.621      -395.9540       501228.5    
  0.7952394       1.843721       668972.8      0.0000000E+00
  2.8284205E-02 -1.0336533E-02   1605.487      -398.4624       486652.0    
  0.7763977       1.861377       669441.1      0.0000000E+00
  2.8775014E-02 -1.0463336E-02   1616.043      -400.9114       472682.4    
  0.7582195       1.878666       669927.4      0.0000000E+00
  2.9265815E-02 -1.0590138E-02   1626.306      -403.2995       459289.8    
  0.7406769       1.895602       670431.6      0.0000000E+00
  2.9756622E-02 -1.0716938E-02   1636.289      -405.6325       446437.9    
  0.7237342       1.912205       670951.9      0.0000000E+00
  3.0247426E-02 -1.0843741E-02   1646.003      -407.9200       434095.6    
  0.7073630       1.928487       671484.6      0.0000000E+00
  3.0738231E-02 -1.0970539E-02   1655.457      -410.1634       422240.0    
  0.6915436       1.944462       672027.1      0.0000000E+00
  3.1229038E-02 -1.1097342E-02   1664.667      -412.3627       410845.9    
  0.6762540       1.960150       672574.8      0.0000000E+00
  3.1719841E-02 -1.1224142E-02   1673.641      -414.5169       399889.2    
  0.6614729       1.975563       673123.1      0.0000000E+00
  3.2210648E-02 -1.1350945E-02   1682.384      -416.6210       389356.0    
  0.6471898       1.990702       673669.6      0.0000000E+00
  3.2701455E-02 -1.1477747E-02   1690.874      -418.6707       379240.2    
  0.6334058       2.005538       674209.7      0.0000000E+00
  3.3192255E-02 -1.1604548E-02   1699.065      -420.6602       369550.4    
  0.6201442       2.020006       674734.5      0.0000000E+00
  3.3683062E-02 -1.1731348E-02   1706.929      -422.6088       360299.9    
  0.6074338       2.034072       675235.8      0.0000000E+00
  3.4173869E-02 -1.1858149E-02   1714.484      -424.6046       351429.1    
  0.5951970       2.047791       675717.6      0.0000000E+00
  3.4664672E-02 -1.1984949E-02   1722.110      -426.6661       342850.9    
  0.5833504       2.061693       676136.1      0.0000000E+00
  3.5155479E-02 -1.2111750E-02   1730.355      -429.1371       334210.8    
  0.5714912       2.076853       676376.4      0.0000000E+00
  3.5646286E-02 -1.2238554E-02   1739.497      -431.9894       325196.8    
  0.5589529       2.093381       676789.1      0.0000000E+00
  3.6137089E-02 -1.2365354E-02   1749.771      -434.0551       316542.2    
  0.5464026       2.110104       677899.8      0.0000000E+00
  3.6627892E-02 -1.2492156E-02   1757.829      -435.5870       309486.2    
  0.5363551       2.123916       678470.9      0.0000000E+00
  3.7118699E-02 -1.2618957E-02   1758.050      -435.9956       303086.5    
  0.5274819       2.128763       678554.9      0.0000000E+00
  3.7609503E-02 -1.2745759E-02   1754.780      -435.0369       299363.3    
  0.5223558       2.127520       678517.2      0.0000000E+00
  3.8100310E-02 -1.2872560E-02   1743.730      -428.7834       297424.7    
  0.5203948       2.116024       677325.5      0.0000000E+00
  1.9230749E-04 -6.7346948E-03   376.4295       1.305331       5174185.    
   5.795821      0.3549257       565349.7      0.0000000E+00
  5.7692250E-04 -6.7346948E-03   398.6270       3.729571       5045882.    
   5.680967      0.3768279       565412.1      0.0000000E+00
  9.6153747E-04 -6.7346948E-03   399.3401       6.780972       5017012.    
   5.655131      0.3777627       565415.0      0.0000000E+00
  1.3461524E-03 -6.7346948E-03   396.4314       10.40488       5020881.    
   5.658575      0.3750558       565417.2      0.0000000E+00
  1.7307674E-03 -6.7346948E-03   388.4855       14.78265       5043575.    
   5.678839      0.3675059       565420.4      0.0000000E+00
  2.1153826E-03 -6.7346948E-03   378.3175       19.97519       5068380.    
   5.700975      0.3579444       565422.8      0.0000000E+00
  2.4999999E-03 -6.7346948E-03   365.9559       26.20197       5092943.    
   5.722862      0.3464783       565426.4      0.0000000E+00
  2.8846173E-03 -6.7346948E-03   349.8031       33.92485       5124984.    
   5.751541      0.3316783       565411.3      0.0000000E+00
  3.2692323E-03 -6.7346948E-03   329.2188       43.87845       5163658.    
   5.786629      0.3132254       565328.9      0.0000000E+00
  3.6538474E-03 -6.7346948E-03   303.4386       57.31521       5207444.    
   5.825282      0.2909672       565360.2      0.0000000E+00
  4.0384624E-03 -6.7346948E-03   271.0359       76.34189       5251682.    
   5.859680      0.2649768       565948.9      0.0000000E+00
  4.4230772E-03 -6.7346948E-03   235.2311       103.4510       5290331.    
   5.888284      0.2415224       566626.8      0.0000000E+00
  4.8076920E-03 -6.7346948E-03   188.8053       141.3755       5248010.    
   5.848253      0.2218209       566946.0      0.0000000E+00
  5.0721699E-03 -6.6224495E-03   172.9870       178.0859       5324753.    
   5.915860      0.2331321       566965.9      0.0000000E+00
  5.2165072E-03 -6.3979588E-03   195.1389       209.4856       5209102.    
   5.813055      0.2694298       567039.5      0.0000000E+00
  5.3608450E-03 -6.1734687E-03   218.4676       245.1499       5127474.    
   5.739279      0.3094956       567209.2      0.0000000E+00
  5.5051828E-03 -5.9489799E-03   246.6188       285.6021       5031368.    
   5.652722      0.3563193       567337.5      0.0000000E+00
  5.6495201E-03 -5.7244897E-03   282.6998       330.4657       4900926.    
   5.535285      0.4117391       567442.5      0.0000000E+00
  5.7938574E-03 -5.5000000E-03   329.2937       380.2991       4726341.    
   5.377349      0.4780239       567556.5      0.0000000E+00
  5.9381947E-03 -5.2755098E-03   392.7888       435.4372       4491446.    
   5.162766      0.5601079       567746.3      0.0000000E+00
  6.0825325E-03 -5.0510196E-03   487.9379       490.6586       4173854.    
   4.868491      0.6657844       568094.2      0.0000000E+00
  6.2268698E-03 -4.8265308E-03   644.3516       520.5505       3675156.    
   4.407706      0.8081582       566980.2      0.0000000E+00
  6.3712071E-03 -4.6020416E-03   874.0822       499.1065       2970666.    
   3.720530       1.003511       567403.1      0.0000000E+00
  6.6866325E-03 -4.5510526E-03   1127.956       385.5529       2202050.    
   2.808025       1.199193       599572.8      0.0000000E+00
  7.1731484E-03 -4.6735648E-03   1219.931       100.9145       1444635.    
   1.888113       1.246711       648578.9      0.0000000E+00
  7.6596662E-03 -4.7960761E-03   1221.445      -178.9958       1093930.    
   1.488768       1.282984       662563.6      0.0000000E+00
  8.1461836E-03 -4.9185888E-03   1205.418      -316.1917       1043717.    
   1.423267       1.296444       669024.2      0.0000000E+00
  8.6327000E-03 -5.0411010E-03   1168.860      -350.6543       1075646.    
   1.449577       1.262048       673760.4      0.0000000E+00
  9.1192145E-03 -5.1636132E-03   1115.178      -344.6642       1158080.    
   1.537892       1.198294       673305.4      0.0000000E+00
  9.6057318E-03 -5.2861259E-03   1070.146      -325.0647       1250770.    
   1.642632       1.141836       669262.8      0.0000000E+00
  1.0092247E-02 -5.4086386E-03   1049.836      -310.2113       1317703.    
   1.711354       1.111410       669590.8      0.0000000E+00
  1.0578764E-02 -5.5311513E-03   1042.004      -303.0865       1350949.    
   1.749122       1.100045       667860.4      0.0000000E+00
  1.1065280E-02 -5.6536635E-03   1044.840      -302.4072       1369102.    
   1.778248       1.104362       662896.1      0.0000000E+00
  1.1551797E-02 -5.7761753E-03   1051.831      -303.0263       1372498.    
   1.791046       1.113967       658563.2      0.0000000E+00
  1.2038313E-02 -5.8986875E-03   1062.205      -303.7576       1369702.    
   1.791008       1.125454       657238.9      0.0000000E+00
  1.2524828E-02 -6.0212002E-03   1075.885      -303.9115       1360344.    
   1.785501       1.141055       655286.0      0.0000000E+00
  1.3011346E-02 -6.1437110E-03   1092.970      -304.1049       1342344.    
   1.771560       1.161077       653033.4      0.0000000E+00
  1.3497859E-02 -6.2662247E-03   1112.843      -305.0590       1316284.    
   1.748690       1.184852       650925.5      0.0000000E+00
  1.3984376E-02 -6.3887369E-03   1134.611      -307.4591       1284488.    
   1.718738       1.211403       649181.4      0.0000000E+00
  1.4470894E-02 -6.5112500E-03   1157.622      -310.5259       1249028.    
   1.684284       1.239913       647573.3      0.0000000E+00
  1.4957411E-02 -6.6337627E-03   1181.069      -313.4467       1211827.    
   1.647258       1.269200       646131.8      0.0000000E+00
  1.5443927E-02 -6.7562736E-03   1204.454      -316.1809       1173963.    
   1.608681       1.298625       644914.6      0.0000000E+00