  Title="2D heat conduction problem"
  Variables="x","y","T"
  ZONE I=101       J=101      F=POINT
        0.00000            0.00000            885.26862
        0.00101            0.00000            885.26862
        0.00303            0.00000            541.84094
        0.00505            0.00000            542.20984
        0.00707            0.00000            542.71594
        0.00909            0.00000            543.35785
        0.01111            0.00000            544.13422
        0.01313            0.00000            545.04291
        0.01515            0.00000            546.08124
        0.01717            0.00000            547.24658
        0.01919            0.00000            548.53546
        0.02121            0.00000            549.94434
        0.02323            0.00000            551.46936
        0.02525            0.00000            553.10651
        0.02727            0.00000            554.85132
        0.02929            0.00000            556.69849
        0.03131            0.00000            558.64380
        0.03333            0.00000            560.68219
        0.03535            0.00000            562.80817
        0.03737            0.00000            565.01691
        0.03939            0.00000            567.30280
        0.04141            0.00000            569.66058
        0.04343            0.00000            572.08478
        0.04545            0.00000            574.56989
        0.04747            0.00000            577.11060
        0.04949            0.00000            579.70148
        0.05152            0.00000            582.33728
        0.05354            0.00000            585.01276
        0.05556            0.00000            587.72284
        0.05758            0.00000            590.46252
        0.05960            0.00000            593.22711
        0.06162            0.00000            596.01178
        0.06364            0.00000            598.81207
        0.06566            0.00000            601.62366
        0.06768            0.00000            604.44257
        0.06970            0.00000            607.26495
        0.07172            0.00000            610.08710
        0.07374            0.00000            612.90564
        0.07576            0.00000            615.71722
        0.07778            0.00000            618.51880
        0.07980            0.00000            621.30768
        0.08182            0.00000            624.08124
        0.08384            0.00000            626.83698
        0.08586            0.00000            629.57269
        0.08788            0.00000            632.28644
        0.08990            0.00000            634.97632
        0.09192            0.00000            637.64099
        0.09394            0.00000            640.27875
        0.09596            0.00000            642.88831
        0.09798            0.00000            645.46869
        0.10000            0.00000            648.01892
        0.10202            0.00000            650.53809
        0.10404            0.00000            653.02557
        0.10606            0.00000            655.48071
        0.10808            0.00000            657.90344
        0.11010            0.00000            660.29297
        0.11212            0.00000            662.64935
        0.11414            0.00000            664.97272
        0.11616            0.00000            667.26227
        0.11818            0.00000            669.51831
        0.12020            0.00000            671.74146
        0.12222            0.00000            673.93109
        0.12424            0.00000            676.08765
        0.12626            0.00000            678.21124
        0.12828            0.00000            680.30194
        0.13030            0.00000            682.35999
        0.13232            0.00000            684.38574
        0.13434            0.00000            686.37958
        0.13636            0.00000            688.34210
        0.13838            0.00000            690.27325
        0.14040            0.00000            692.17407
        0.14242            0.00000            694.04449
        0.14444            0.00000            695.88538
        0.14646            0.00000            697.69696
        0.14848            0.00000            699.47980
        0.15050            0.00000            701.23413
        0.15253            0.00000            702.96075
        0.15455            0.00000            704.65985
        0.15657            0.00000            706.33191
        0.15859            0.00000            707.97766
        0.16061            0.00000            709.59723
        0.16263            0.00000            711.19110
        0.16465            0.00000            712.75970
        0.16667            0.00000            714.30347
        0.16869            0.00000            715.82263
        0.17071            0.00000            717.31763
        0.17273            0.00000            718.78894
        0.17475            0.00000            720.23688
        0.17677            0.00000            721.66168
        0.17879            0.00000            723.06366
        0.18081            0.00000            724.44324
        0.18283            0.00000            725.80072
        0.18485            0.00000            727.13635
        0.18687            0.00000            728.45038
        0.18889            0.00000            729.74304
        0.19091            0.00000            731.01440
        0.19293            0.00000            732.26520
        0.19495            0.00000            733.49500
        0.19697            0.00000            734.70435
        0.19899            0.00000            735.89343
        0.20000            0.00000            736.47784
        0.00000            0.00051            885.24225
        0.00101            0.00051            885.24225
        0.00303            0.00051            541.20087
        0.00505            0.00051            541.57043
        0.00707            0.00051            542.07739
        0.00909            0.00051            542.72046
        0.01111            0.00051            543.49823
        0.01313            0.00051            544.40851
        0.01515            0.00051            545.44873
        0.01717            0.00051            546.61615
        0.01919            0.00051            547.90735
        0.02121            0.00051            549.31873
        0.02323            0.00051            550.84650
        0.02525            0.00051            552.48657
        0.02727            0.00051            554.23450
        0.02929            0.00051            556.08496
        0.03131            0.00051            558.03375
        0.03333            0.00051            560.07574
        0.03535            0.00051            562.20557
        0.03737            0.00051            564.41821
        0.03939            0.00051            566.70819
        0.04141            0.00051            569.07019
        0.04343            0.00051            571.49872
        0.04545            0.00051            573.98828
        0.04747            0.00051            576.53351
        0.04949            0.00051            579.12903
        0.05152            0.00051            581.76953
        0.05354            0.00051            584.44983
        0.05556            0.00051            587.16473
        0.05758            0.00051            589.90930
        0.05960            0.00051            592.67883
        0.06162            0.00051            595.46851
        0.06364            0.00051            598.27380
        0.06566            0.00051            601.09039
        0.06768            0.00051            603.91437
        0.06970            0.00051            606.74176
        0.07172            0.00051            609.56897
        0.07374            0.00051            612.39252
        0.07576            0.00051            615.20917
        0.07778            0.00051            618.01575
        0.07980            0.00051            620.80957
        0.08182            0.00051            623.58813
        0.08384            0.00051            626.34875
        0.08586            0.00051            629.08936
        0.08788            0.00051            631.80798
        0.08990            0.00051            634.50269
        0.09192            0.00051            637.17212
        0.09394            0.00051            639.81458
        0.09596            0.00051            642.42877
        0.09798            0.00051            645.01379
        0.10000            0.00051            647.56860
        0.10202            0.00051            650.09222
        0.10404            0.00051            652.58417
        0.10606            0.00051            655.04370
        0.10808            0.00051            657.47076
        0.11010            0.00051            659.86456
        0.11212            0.00051            662.22516
        0.11414            0.00051            664.55267
        0.11616            0.00051            666.84631
        0.11818            0.00051            669.10638
        0.12020            0.00051            671.33350
        0.12222            0.00051            673.52704
        0.12424            0.00051            675.68744
        0.12626            0.00051            677.81488
        0.12828            0.00051            679.90930
        0.13030            0.00051            681.97101
        0.13232            0.00051            684.00037
        0.13434            0.00051            685.99780
        0.13636            0.00051            687.96381
        0.13838            0.00051            689.89844
        0.14040            0.00051            691.80261
        0.14242            0.00051            693.67639
        0.14444            0.00051            695.52057
        0.14646            0.00051            697.33539
        0.14848            0.00051            699.12140
        0.15050            0.00051            700.87891
        0.15253            0.00051            702.60858
        0.15455            0.00051            704.31073
        0.15657            0.00051            705.98578
        0.15859            0.00051            707.63446
        0.16061            0.00051            709.25696
        0.16263            0.00051            710.85364
        0.16465            0.00051            712.42505
        0.16667            0.00051            713.97156
        0.16869            0.00051            715.49347
        0.17071            0.00051            716.99115
        0.17273            0.00051            718.46509
        0.17475            0.00051            719.91559
        0.17677            0.00051            721.34296
        0.17879            0.00051            722.74744
        0.18081            0.00051            724.12946
        0.18283            0.00051            725.48938
        0.18485            0.00051            726.82739
        0.18687            0.00051            728.14380
        0.18889            0.00051            729.43872
        0.19091            0.00051            730.71240
        0.19293            0.00051            731.96539
        0.19495            0.00051            733.19739
        0.19697            0.00051            734.40894
        0.19899            0.00051            735.60010
        0.20000            0.00051            736.18561
        0.00000            0.00152            539.74664
        0.00101            0.00152            539.74664
        0.00303            0.00152            539.97919
        0.00505            0.00152            540.34991
        0.00707            0.00152            540.85834
        0.00909            0.00152            541.50323
        0.01111            0.00152            542.28314
        0.01313            0.00152            543.19598
        0.01515            0.00152            544.23914
        0.01717            0.00152            545.40979
        0.01919            0.00152            546.70465
        0.02121            0.00152            548.12006
        0.02323            0.00152            549.65216
        0.02525            0.00152            551.29681
        0.02727            0.00152            553.04956
        0.02929            0.00152            554.90546
        0.03131            0.00152            556.85986
        0.03333            0.00152            558.90765
        0.03535            0.00152            561.04364
        0.03737            0.00152            563.26270
        0.03939            0.00152            565.55939
        0.04141            0.00152            567.92828
        0.04343            0.00152            570.36395
        0.04545            0.00152            572.86090
        0.04747            0.00152            575.41370
        0.04949            0.00152            578.01697
        0.05152            0.00152            580.66541
        0.05354            0.00152            583.35382
        0.05556            0.00152            586.07703
        0.05758            0.00152            588.83008
        0.05960            0.00152            591.60809
        0.06162            0.00152            594.40643
        0.06364            0.00152            597.22046
        0.06566            0.00152            600.04596
        0.06768            0.00152            602.87878
        0.06970            0.00152            605.71527
        0.07172            0.00152            608.55151
        0.07374            0.00152            611.38403
        0.07576            0.00152            614.20984
        0.07778            0.00152            617.02557
        0.07980            0.00152            619.82849
        0.08182            0.00152            622.61609
        0.08384            0.00152            625.38586
        0.08586            0.00152            628.13556
        0.08788            0.00152            630.86328
        0.08990            0.00152            633.56714
        0.09192            0.00152            636.24548
        0.09394            0.00152            638.89685
        0.09596            0.00152            641.51996
        0.09798            0.00152            644.11371
        0.10000            0.00152            646.67725
        0.10202            0.00152            649.20953
        0.10404            0.00152            651.71014
        0.10606            0.00152            654.17822
        0.10808            0.00152            656.61353
        0.11010            0.00152            659.01569
        0.11212            0.00152            661.38458
        0.11414            0.00152            663.72003
        0.11616            0.00152            666.02179
        0.11818            0.00152            668.28992
        0.12020            0.00152            670.52478
        0.12222            0.00152            672.72607
        0.12424            0.00152            674.89417
        0.12626            0.00152            677.02911
        0.12828            0.00152            679.13092
        0.13030            0.00152            681.19989
        0.13232            0.00152            683.23651
        0.13434            0.00152            685.24109
        0.13636            0.00152            687.21405
        0.13838            0.00152            689.15546
        0.14040            0.00152            691.06641
        0.14242            0.00152            692.94690
        0.14444            0.00152            694.79767
        0.14646            0.00152            696.61890
        0.14848            0.00152            698.41119
        0.15050            0.00152            700.17505
        0.15253            0.00152            701.91083
        0.15455            0.00152            703.61908
        0.15657            0.00152            705.30017
        0.15859            0.00152            706.95465
        0.16061            0.00152            708.58289
        0.16263            0.00152            710.18530
        0.16465            0.00152            711.76233
        0.16667            0.00152            713.31433
        0.16869            0.00152            714.84167
        0.17071            0.00152            716.34473
        0.17273            0.00152            717.82391
        0.17475            0.00152            719.27954
        0.17677            0.00152            720.71191
        0.17879            0.00152            722.12146
        0.18081            0.00152            723.50842
        0.18283            0.00152            724.87311
        0.18485            0.00152            726.21588
        0.18687            0.00152            727.53687
        0.18889            0.00152            728.83649
        0.19091            0.00152            730.11469
        0.19293            0.00152            731.37207
        0.19495            0.00152            732.60840
        0.19697            0.00152            733.82428
        0.19899            0.00152            735.01965
        0.20000            0.00152            735.60718
        0.00000            0.00253            538.54865
        0.00101            0.00253            538.54865
        0.00303            0.00253            538.78198
        0.00505            0.00253            539.15375
        0.00707            0.00253            539.66357
        0.00909            0.00253            540.31012
        0.01111            0.00253            541.09216
        0.01313            0.00253            542.00751
        0.01515            0.00253            543.05353
        0.01717            0.00253            544.22742
        0.01919            0.00253            545.52576
        0.02121            0.00253            546.94513
        0.02323            0.00253            548.48145
        0.02525            0.00253            550.13062
        0.02727            0.00253            551.88812
        0.02929            0.00253            553.74939
        0.03131            0.00253            555.70929
        0.03333            0.00253            557.76263
        0.03535            0.00253            559.90466
        0.03737            0.00253            562.13000
        0.03939            0.00253            564.43323
        0.04141            0.00253            566.80884
        0.04343            0.00253            569.25146
        0.04545            0.00253            571.75568
        0.04747            0.00253            574.31586
        0.04949            0.00253            576.92676
        0.05152            0.00253            579.58301
        0.05354            0.00253            582.27942
        0.05556            0.00253            585.01068
        0.05758            0.00253            587.77197
        0.05960            0.00253            590.55835
        0.06162            0.00253            593.36511
        0.06364            0.00253            596.18768
        0.06566            0.00253            599.02185
        0.06768            0.00253            601.86346
        0.06970            0.00253            604.70874
        0.07172            0.00253            607.55383
        0.07374            0.00253            610.39532
        0.07576            0.00253            613.22998
        0.07778            0.00253            616.05469
        0.07980            0.00253            618.86658
        0.08182            0.00253            621.66309
        0.08384            0.00253            624.44183
        0.08586            0.00253            627.20038
        0.08788            0.00253            629.93695
        0.08990            0.00253            632.64966
        0.09192            0.00253            635.33679
        0.09394            0.00253            637.99701
        0.09596            0.00253            640.62872
        0.09798            0.00253            643.23114
        0.10000            0.00253            645.80316
        0.10202            0.00253            648.34406
        0.10404            0.00253            650.85297
        0.10606            0.00253            653.32941
        0.10808            0.00253            655.77301
        0.11010            0.00253            658.18329
        0.11212            0.00253            660.56024
        0.11414            0.00253            662.90356
        0.11616            0.00253            665.21326
        0.11818            0.00253            667.48914
        0.12020            0.00253            669.73163
        0.12222            0.00253            671.94049
        0.12424            0.00253            674.11633
        0.12626            0.00253            676.25867
        0.12828            0.00253            678.36774
        0.13030            0.00253            680.44379
        0.13232            0.00253            682.48743
        0.13434            0.00253            684.49896
        0.13636            0.00253            686.47870
        0.13838            0.00253            688.42706
        0.14040            0.00253            690.34454
        0.14242            0.00253            692.23157
        0.14444            0.00253            694.08875
        0.14646            0.00253            695.91632
        0.14848            0.00253            697.71490
        0.15050            0.00253            699.48486
        0.15253            0.00253            701.22668
        0.15455            0.00253            702.94092
        0.15657            0.00253            704.62787
        0.15859            0.00253            706.28809
        0.16061            0.00253            707.92194
        0.16263            0.00253            709.52991
        0.16465            0.00253            711.11249
        0.16667            0.00253            712.66992
        0.16869            0.00253            714.20251
        0.17071            0.00253            715.71075
        0.17273            0.00253            717.19507
        0.17475            0.00253            718.65576
        0.17677            0.00253            720.09320
        0.17879            0.00253            721.50763
        0.18081            0.00253            722.89935
        0.18283            0.00253            724.26880
        0.18485            0.00253            725.61621
        0.18687            0.00253            726.94177
        0.18889            0.00253            728.24585
        0.19091            0.00253            729.52856
        0.19293            0.00253            730.79022
        0.19495            0.00253            732.03088
        0.19697            0.00253            733.25092
        0.19899            0.00253            734.45044
        0.20000            0.00253            735.04004
        0.00000            0.00354            537.37512
        0.00101            0.00354            537.37512
        0.00303            0.00354            537.60913
        0.00505            0.00354            537.98187
        0.00707            0.00354            538.49310
        0.00909            0.00354            539.14148
        0.01111            0.00354            539.92554
        0.01313            0.00354            540.84332
        0.01515            0.00354            541.89215
        0.01717            0.00354            543.06909
        0.01919            0.00354            544.37103
        0.02121            0.00354            545.79407
        0.02323            0.00354            547.33459
        0.02525            0.00354            548.98816
        0.02727            0.00354            550.75055
        0.02929            0.00354            552.61688
        0.03131            0.00354            554.58203
        0.03333            0.00354            556.64099
        0.03535            0.00354            558.78888
        0.03737            0.00354            561.02026
        0.03939            0.00354            563.32983
        0.04141            0.00354            565.71210
        0.04343            0.00354            568.16156
        0.04545            0.00354            570.67279
        0.04747            0.00354            573.24030
        0.04949            0.00354            575.85858
        0.05152            0.00354            578.52252
        0.05354            0.00354            581.22662
        0.05556            0.00354            583.96582
        0.05758            0.00354            586.73523
        0.05960            0.00354            589.52972
        0.06162            0.00354            592.34485
        0.06364            0.00354            595.17578
        0.06566            0.00354            598.01837
        0.06768            0.00354            600.86859
        0.06970            0.00354            603.72247
        0.07172            0.00354            606.57629
        0.07374            0.00354            609.42639
        0.07576            0.00354            612.26978
        0.07778            0.00354            615.10321
        0.07980            0.00354            617.92389
        0.08182            0.00354            620.72919
        0.08384            0.00354            623.51666
        0.08586            0.00354            626.28394
        0.08788            0.00354            629.02924
        0.08990            0.00354            631.75061
        0.09192            0.00354            634.44635
        0.09394            0.00354            637.11499
        0.09596            0.00354            639.75537
        0.09798            0.00354            642.36615
        0.10000            0.00354            644.94659
        0.10202            0.00354            647.49591
        0.10404            0.00354            650.01300
        0.10606            0.00354            652.49756
        0.10808            0.00354            654.94916
        0.11010            0.00354            657.36755
        0.11212            0.00354            659.75238
        0.11414            0.00354            662.10339
        0.11616            0.00354            664.42084
        0.11818            0.00354            666.70447
        0.12020            0.00354            668.95428
        0.12222            0.00354            671.17065
        0.12424            0.00354            673.35376
        0.12626            0.00354            675.50336
        0.12828            0.00354            677.61951
        0.13030            0.00354            679.70264
        0.13232            0.00354            681.75317
        0.13434            0.00354            683.77142
        0.13636            0.00354            685.75800
        0.13838            0.00354            687.71289
        0.14040            0.00354            689.63696
        0.14242            0.00354            691.53040
        0.14444            0.00354            693.39374
        0.14646            0.00354            695.22754
        0.14848            0.00354            697.03229
        0.15050            0.00354            698.80823
        0.15253            0.00354            700.55603
        0.15455            0.00354            702.27606
        0.15657            0.00354            703.96869
        0.15859            0.00354            705.63458
        0.16061            0.00354            707.27399
        0.16263            0.00354            708.88739
        0.16465            0.00354            710.47528
        0.16667            0.00354            712.03796
        0.16869            0.00354            713.57581
        0.17071            0.00354            715.08929
        0.17273            0.00354            716.57855
        0.17475            0.00354            718.04419
        0.17677            0.00354            719.48657
        0.17879            0.00354            720.90582
        0.18081            0.00354            722.30219
        0.18283            0.00354            723.67633
        0.18485            0.00354            725.02826
        0.18687            0.00354            726.35834
        0.18889            0.00354            727.66681
        0.19091            0.00354            728.95386
        0.19293            0.00354            730.21967
        0.19495            0.00354            731.46454
        0.19697            0.00354            732.68878
        0.19899            0.00354            733.89227
        0.20000            0.00354            734.48383
        0.00000            0.00455            536.22620
        0.00101            0.00455            536.22620
        0.00303            0.00455            536.46075
        0.00505            0.00455            536.83453
        0.00707            0.00455            537.34711
        0.00909            0.00455            537.99713
        0.01111            0.00455            538.78333
        0.01313            0.00455            539.70355
        0.01515            0.00455            540.75507
        0.01717            0.00455            541.93512
        0.01919            0.00455            543.24042
        0.02121            0.00455            544.66724
        0.02323            0.00455            546.21173
        0.02525            0.00455            547.86957
        0.02727            0.00455            549.63666
        0.02929            0.00455            551.50800
        0.03131            0.00455            553.47839
        0.03333            0.00455            555.54272
        0.03535            0.00455            557.69635
        0.03737            0.00455            559.93365
        0.03939            0.00455            562.24939
        0.04141            0.00455            564.63812
        0.04343            0.00455            567.09430
        0.04545            0.00455            569.61249
        0.04747            0.00455            572.18707
        0.04949            0.00455            574.81262
        0.05152            0.00455            577.48395
        0.05354            0.00455            580.19562