  Title="2D heat conduction problem"
  Variables="x","y","T"
  ZONE I=201       J=201      F=POINT
        0.00000            0.00000            300.00000
        0.00251            0.00000            300.00000
        0.00754            0.00000            300.00000
        0.01256            0.00000            300.00000
        0.01759            0.00000            300.00000
        0.02261            0.00000            300.00000
        0.02764            0.00000            300.00000
        0.03266            0.00000            300.00000
        0.03769            0.00000            300.00000
        0.04271            0.00000            300.00000
        0.04774            0.00000            300.00000
        0.05276            0.00000            300.00000
        0.05779            0.00000            300.00000
        0.06281            0.00000            300.00000
        0.06784            0.00000            300.00000
        0.07286            0.00000            300.00000
        0.07789            0.00000            300.00000
        0.08291            0.00000            300.00000
        0.08794            0.00000            300.00000
        0.09296            0.00000            300.00000
        0.09799            0.00000            300.00000
        0.10302            0.00000            300.00000
        0.10804            0.00000            300.00000
        0.11307            0.00000            300.00000
        0.11809            0.00000            300.00000
        0.12312            0.00000            300.00000
        0.12814            0.00000            300.00000
        0.13317            0.00000            300.00000
        0.13819            0.00000            300.00000
        0.14322            0.00000            300.00000
        0.14824            0.00000            300.00000
        0.15327            0.00000            300.00000
        0.15829            0.00000            300.00000
        0.16332            0.00000            300.00000
        0.16834            0.00000            300.00000
        0.17337            0.00000            300.00000
        0.17839            0.00000            300.00000
        0.18342            0.00000            300.00000
        0.18844            0.00000            300.00000
        0.19347            0.00000            300.00000
        0.19849            0.00000            300.00000
        0.20352            0.00000            300.00000
        0.20854            0.00000            300.00000
        0.21357            0.00000            300.00000
        0.21859            0.00000            300.00000
        0.22362            0.00000            300.00000
        0.22864            0.00000            300.00000
        0.23367            0.00000            300.00000
        0.23869            0.00000            300.00000
        0.24372            0.00000            300.00000
        0.24874            0.00000            300.00000
        0.25377            0.00000            300.00000
        0.25879            0.00000            300.00000
        0.26382            0.00000            300.00000
        0.26884            0.00000            300.00000
        0.27387            0.00000            300.00000
        0.27889            0.00000            300.00000
        0.28392            0.00000            300.00000
        0.28894            0.00000            300.00000
        0.29397            0.00000            300.00000
        0.29899            0.00000            300.00000
        0.30402            0.00000            300.00000
        0.30904            0.00000            300.00000
        0.31407            0.00000            300.00000
        0.31910            0.00000            300.00000
        0.32412            0.00000            300.00000
        0.32915            0.00000            300.00000
        0.33417            0.00000            300.00000
        0.33920            0.00000            300.00000
        0.34422            0.00000            300.00000
        0.34925            0.00000            300.00000
        0.35427            0.00000            300.00000
        0.35930            0.00000            300.00000
        0.36432            0.00000            300.00000
        0.36935            0.00000            300.00000
        0.37437            0.00000            300.00000
        0.37940            0.00000            300.00000
        0.38442            0.00000            300.00000
        0.38945            0.00000            300.00000
        0.39447            0.00000            300.00000
        0.39950            0.00000            300.00000
        0.40452            0.00000            300.00000
        0.40955            0.00000            300.00000
        0.41457            0.00000            300.00000
        0.41960            0.00000            300.00000
        0.42462            0.00000            300.00000
        0.42965            0.00000            300.00000
        0.43467            0.00000            300.00000
        0.43970            0.00000            300.00000
        0.44472            0.00000            300.00000
        0.44975            0.00000            300.00000
        0.45477            0.00000            300.00000
        0.45980            0.00000            300.00000
        0.46482            0.00000            300.00000
        0.46985            0.00000            300.00000
        0.47487            0.00000            300.00000
        0.47990            0.00000            300.00000
        0.48492            0.00000            300.00000
        0.48995            0.00000            300.00000
        0.49497            0.00000            300.00000
        0.50000            0.00000            300.00000
        0.50502            0.00000            300.00000
        0.51005            0.00000            300.00000
        0.51507            0.00000            300.00000
        0.52010            0.00000            300.00000
        0.52513            0.00000            300.00000
        0.53015            0.00000            300.00000
        0.53518            0.00000            300.00000
        0.54020            0.00000            300.00000
        0.54523            0.00000            300.00000
        0.55025            0.00000            300.00000
        0.55528            0.00000            300.00000
        0.56030            0.00000            300.00000
        0.56533            0.00000            300.00000
        0.57035            0.00000            300.00000
        0.57538            0.00000            300.00000
        0.58040            0.00000            300.00000
        0.58543            0.00000            300.00000
        0.59045            0.00000            300.00000
        0.59548            0.00000            300.00000
        0.60050            0.00000            300.00000
        0.60553            0.00000            300.00000
        0.61055            0.00000            300.00000
        0.61558            0.00000            300.00000
        0.62060            0.00000            300.00000
        0.62563            0.00000            300.00000
        0.63065            0.00000            300.00000
        0.63568            0.00000            300.00000
        0.64070            0.00000            300.00000
        0.64573            0.00000            300.00000
        0.65075            0.00000            300.00000
        0.65578            0.00000            300.00000
        0.66080            0.00000            300.00000
        0.66583            0.00000            300.00000
        0.67085            0.00000            300.00000
        0.67588            0.00000            300.00000
        0.68090            0.00000            300.00000
        0.68593            0.00000            300.00000
        0.69096            0.00000            300.00000
        0.69598            0.00000            300.00000
        0.70101            0.00000            300.00000
        0.70603            0.00000            300.00000
        0.71106            0.00000            300.00000
        0.71608            0.00000            300.00000
        0.72111            0.00000            300.00000
        0.72613            0.00000            300.00000
        0.73116            0.00000            300.00000
        0.73618            0.00000            300.00000
        0.74121            0.00000            300.00000
        0.74623            0.00000            300.00000
        0.75126            0.00000            300.00000
        0.75628            0.00000            300.00000
        0.76131            0.00000            300.00000
        0.76633            0.00000            300.00000
        0.77136            0.00000            300.00000
        0.77638            0.00000            300.00000
        0.78141            0.00000            300.00000
        0.78643            0.00000            300.00000
        0.79146            0.00000            300.00000
        0.79648            0.00000            300.00000
        0.80151            0.00000            300.00000
        0.80653            0.00000            300.00000
        0.81156            0.00000            300.00000
        0.81658            0.00000            300.00000
        0.82161            0.00000            300.00000
        0.82663            0.00000            300.00000
        0.83166            0.00000            300.00000
        0.83668            0.00000            300.00000
        0.84171            0.00000            300.00000
        0.84673            0.00000            300.00000
        0.85176            0.00000            300.00000
        0.85678            0.00000            300.00000
        0.86181            0.00000            300.00000
        0.86684            0.00000            300.00000
        0.87186            0.00000            300.00000
        0.87689            0.00000            300.00000
        0.88191            0.00000            300.00000
        0.88694            0.00000            300.00000
        0.89196            0.00000            300.00000
        0.89699            0.00000            300.00000
        0.90201            0.00000            300.00000
        0.90704            0.00000            300.00000
        0.91206            0.00000            300.00000
        0.91709            0.00000            300.00000
        0.92211            0.00000            300.00000
        0.92714            0.00000            300.00000
        0.93216            0.00000            300.00000
        0.93719            0.00000            300.00000
        0.94221            0.00000            300.00000
        0.94724            0.00000            300.00000
        0.95226            0.00000            300.00000
        0.95729            0.00000            300.00000
        0.96231            0.00000            300.00000
        0.96734            0.00000            300.00000
        0.97236            0.00000            300.00000
        0.97739            0.00000            300.00000
        0.98241            0.00000            300.00000
        0.98744            0.00000            300.00000
        0.99246            0.00000            300.00000
        0.99749            0.00000            300.00000
        1.00000            0.00000            327.37234
        0.00000            0.00251            500.00000
        0.00251            0.00251            400.00092
        0.00754            0.00251            345.35352
        0.01256            0.00251            326.76178
        0.01759            0.00251            318.68579
        0.02261            0.00251            314.36371
        0.02764            0.00251            311.68469
        0.03266            0.00251            309.85638
        0.03769            0.00251            308.52597
        0.04271            0.00251            307.51309
        0.04774            0.00251            306.71552
        0.05276            0.00251            306.07080
        0.05779            0.00251            305.53876
        0.06281            0.00251            305.09198
        0.06784            0.00251            304.71152
        0.07286            0.00251            304.38351
        0.07789            0.00251            304.09769
        0.08291            0.00251            303.84641
        0.08794            0.00251            303.62369
        0.09296            0.00251            303.42493
        0.09799            0.00251            303.24640
        0.10302            0.00251            303.08511
        0.10804            0.00251            302.93872
        0.11307            0.00251            302.80521
        0.11809            0.00251            302.68292
        0.12312            0.00251            302.57047
        0.12814            0.00251            302.46671
        0.13317            0.00251            302.37067
        0.13819            0.00251            302.28143
        0.14322            0.00251            302.19839
        0.14824            0.00251            302.12088
        0.15327            0.00251            302.04837
        0.15829            0.00251            301.98035
        0.16332            0.00251            301.91644
        0.16834            0.00251            301.85623
        0.17337            0.00251            301.79944
        0.17839            0.00251            301.74585
        0.18342            0.00251            301.69507
        0.18844            0.00251            301.64697
        0.19347            0.00251            301.60126
        0.19849            0.00251            301.55783
        0.20352            0.00251            301.51651
        0.20854            0.00251            301.47711
        0.21357            0.00251            301.43958
        0.21859            0.00251            301.40372
        0.22362            0.00251            301.36942
        0.22864            0.00251            301.33661
        0.23367            0.00251            301.30521
        0.23869            0.00251            301.27509
        0.24372            0.00251            301.24622
        0.24874            0.00251            301.21848
        0.25377            0.00251            301.19189
        0.25879            0.00251            301.16623
        0.26382            0.00251            301.14160
        0.26884            0.00251            301.11789
        0.27387            0.00251            301.09506
        0.27889            0.00251            301.07309
        0.28392            0.00251            301.05191
        0.28894            0.00251            301.03146
        0.29397            0.00251            301.01175
        0.29899            0.00251            300.99277
        0.30402            0.00251            300.97443
        0.30904            0.00251            300.95673
        0.31407            0.00251            300.93961
        0.31910            0.00251            300.92303
        0.32412            0.00251            300.90707
        0.32915            0.00251            300.89157
        0.33417            0.00251            300.87668
        0.33920            0.00251            300.86224
        0.34422            0.00251            300.84827
        0.34925            0.00251            300.83484
        0.35427            0.00251            300.82178
        0.35930            0.00251            300.80911
        0.36432            0.00251            300.79691
        0.36935            0.00251            300.78510
        0.37437            0.00251            300.77371
        0.37940            0.00251            300.76270
        0.38442            0.00251            300.75201
        0.38945            0.00251            300.74176
        0.39447            0.00251            300.73178
        0.39950            0.00251            300.72220
        0.40452            0.00251            300.71295
        0.40955            0.00251            300.70404
        0.41457            0.00251            300.69537
        0.41960            0.00251            300.68707
        0.42462            0.00251            300.67902
        0.42965            0.00251            300.67133
        0.43467            0.00251            300.66391
        0.43970            0.00251            300.65674
        0.44472            0.00251            300.64984
        0.44975            0.00251            300.64325
        0.45477            0.00251            300.63693
        0.45980            0.00251            300.63083
        0.46482            0.00251            300.62506
        0.46985            0.00251            300.61951
        0.47487            0.00251            300.61426
        0.47990            0.00251            300.60922
        0.48492            0.00251            300.60440
        0.48995            0.00251            300.59985
        0.49497            0.00251            300.59555
        0.50000            0.00251            300.59152
        0.50502            0.00251            300.58768
        0.51005            0.00251            300.58405
        0.51507            0.00251            300.58066
        0.52010            0.00251            300.57755
        0.52513            0.00251            300.57462
        0.53015            0.00251            300.57193
        0.53518            0.00251            300.56946
        0.54020            0.00251            300.56720
        0.54523            0.00251            300.56519
        0.55025            0.00251            300.56339
        0.55528            0.00251            300.56183
        0.56030            0.00251            300.56046
        0.56533            0.00251            300.55936
        0.57035            0.00251            300.55850
        0.57538            0.00251            300.55783
        0.58040            0.00251            300.55737
        0.58543            0.00251            300.55716
        0.59045            0.00251            300.55716
        0.59548            0.00251            300.55737
        0.60050            0.00251            300.55783
        0.60553            0.00251            300.55850
        0.61055            0.00251            300.55945
        0.61558            0.00251            300.56064
        0.62060            0.00251            300.56207
        0.62563            0.00251            300.56375
        0.63065            0.00251            300.56564
        0.63568            0.00251            300.56778
        0.64070            0.00251            300.57016
        0.64573            0.00251            300.57288
        0.65075            0.00251            300.57578
        0.65578            0.00251            300.57898
        0.66080            0.00251            300.58249
        0.66583            0.00251            300.58627
        0.67085            0.00251            300.59030
        0.67588            0.00251            300.59457
        0.68090            0.00251            300.59924
        0.68593            0.00251            300.60422
        0.69096            0.00251            300.60959
        0.69598            0.00251            300.61520
        0.70101            0.00251            300.62115
        0.70603            0.00251            300.62750
        0.71106            0.00251            300.63422
        0.71608            0.00251            300.64127
        0.72111            0.00251            300.64874
        0.72613            0.00251            300.65662
        0.73116            0.00251            300.66495
        0.73618            0.00251            300.67371
        0.74121            0.00251            300.68295
        0.74623            0.00251            300.69266
        0.75126            0.00251            300.70288
        0.75628            0.00251            300.71368
        0.76131            0.00251            300.72504
        0.76633            0.00251            300.73697
        0.77136            0.00251            300.74957
        0.77638            0.00251            300.76282
        0.78141            0.00251            300.77673
        0.78643            0.00251            300.79147
        0.79146            0.00251            300.80698
        0.79648            0.00251            300.82339
        0.80151            0.00251            300.84067
        0.80653            0.00251            300.85895
        0.81156            0.00251            300.87823
        0.81658            0.00251            300.89868
        0.82161            0.00251            300.92035
        0.82663            0.00251            300.94330
        0.83166            0.00251            300.96765
        0.83668            0.00251            300.99356
        0.84171            0.00251            301.02121
        0.84673            0.00251            301.05066
        0.85176            0.00251            301.08215
        0.85678            0.00251            301.11584
        0.86181            0.00251            301.15198
        0.86684            0.00251            301.19086
        0.87186            0.00251            301.23270
        0.87689            0.00251            301.27789
        0.88191            0.00251            301.32684
        0.88694            0.00251            301.38004
        0.89196            0.00251            301.43805
        0.89699            0.00251            301.50153
        0.90201            0.00251            301.57132
        0.90704            0.00251            301.64828
        0.91206            0.00251            301.73364
        0.91709            0.00251            301.82889
        0.92211            0.00251            301.93570
        0.92714            0.00251            302.05646
        0.93216            0.00251            302.19400
        0.93719            0.00251            302.35208
        0.94221            0.00251            302.53571
        0.94724            0.00251            302.75159
        0.95226            0.00251            303.00916
        0.95729            0.00251            303.32193
        0.96231            0.00251            303.71002
        0.96734            0.00251            304.20517
        0.97236            0.00251            304.86023
        0.97739            0.00251            305.77225
        0.98241            0.00251            307.14182
        0.98744            0.00251            309.45703
        0.99246            0.00251            314.15314
        0.99749            0.00251            326.30035
        1.00000            0.00251            346.47369
        0.00000            0.00754            500.00000
        0.00251            0.00754            454.64926
        0.00754            0.00754            400.00217
        0.01256            0.00754            369.76697
        0.01759            0.00754            352.30093
        0.02261            0.00754            341.44550
        0.02764            0.00754            334.20059
        0.03266            0.00754            329.06876
        0.03769            0.00754            325.25800
        0.04271            0.00754            322.32144
        0.04774            0.00754            319.99103
        0.05276            0.00754            318.09729
        0.05779            0.00754            316.52835
        0.06281            0.00754            315.20718
        0.06784            0.00754            314.07953
        0.07286            0.00754            313.10562
        0.07789            0.00754            312.25595
        0.08291            0.00754            311.50806
        0.08794            0.00754            310.84460
        0.09296            0.00754            310.25201
        0.09799            0.00754            309.71942
        0.10302            0.00754            309.23804
        0.10804            0.00754            308.80078
        0.11307            0.00754            308.40186
        0.11809            0.00754            308.03632
        0.12312            0.00754            307.70010
        0.12814            0.00754            307.38977
        0.13317            0.00754            307.10245
        0.13819            0.00754            306.83560
        0.14322            0.00754            306.58707
        0.14824            0.00754            306.35510
        0.15327            0.00754            306.13800
        0.15829            0.00754            305.93436
        0.16332            0.00754            305.74298
        0.16834            0.00754            305.56277
        0.17337            0.00754            305.39279
        0.17839            0.00754            305.23215
        0.18342            0.00754            305.08005
        0.18844            0.00754            304.93588
        0.19347            0.00754            304.79898
        0.19849            0.00754            304.66888
        0.20352            0.00754            304.54507
        0.20854            0.00754            304.42706
        0.21357            0.00754            304.31451
        0.21859            0.00754            304.20697
        0.22362            0.00754            304.10419
        0.22864            0.00754            304.00586
        0.23367            0.00754            303.91171
        0.23869            0.00754            303.82147
        0.24372            0.00754            303.73492
        0.24874            0.00754            303.65182
        0.25377            0.00754            303.57202
        0.25879            0.00754            303.49524
        0.26382            0.00754            303.42142
        0.26884            0.00754            303.35037
        0.27387            0.00754            303.28195
        0.27889            0.00754            303.21603
        0.28392            0.00754            303.15250
        0.28894            0.00754            303.09128
        0.29397            0.00754            303.03220
        0.29899            0.00754            302.97519
        0.30402            0.00754            302.92017
        0.30904            0.00754            302.86703
        0.31407            0.00754            302.81570
        0.31910            0.00754            302.76608
        0.32412            0.00754            302.71817
        0.32915            0.00754            302.67181
        0.33417            0.00754            302.62708
        0.33920            0.00754            302.58377
        0.34422            0.00754            302.54193
        0.34925            0.00754            302.50153
        0.35427            0.00754            302.46237
        0.35930            0.00754            302.42447
        0.36432            0.00754            302.38785
        0.36935            0.00754            302.35248
        0.37437            0.00754            302.31830
        0.37940            0.00754            302.28525
        0.38442            0.00754            302.25333
        0.38945            0.00754            302.22241
        0.39447            0.00754            302.19257
        0.39950            0.00754            302.16376
        0.40452            0.00754            302.13599
        0.40955            0.00754            302.10919
        0.41457            0.00754            302.08328
        0.41960            0.00754            302.05835
        0.42462            0.00754            302.03427
        0.42965            0.00754            302.01111
        0.43467            0.00754            301.98886
        0.43970            0.00754            301.96741
        0.44472            0.00754            301.94678
        0.44975            0.00754            301.92697
        0.45477            0.00754            301.90802
        0.45980            0.00754            301.88983
        0.46482            0.00754            301.87247
        0.46985            0.00754            301.85583
        0.47487            0.00754            301.83997
        0.47990            0.00754            301.82486
        0.48492            0.00754            301.81046
        0.48995            0.00754            301.79678
        0.49497            0.00754            301.78387
        0.50000            0.00754            301.77176
        0.50502            0.00754            301.76025
        0.51005            0.00754            301.74948
        0.51507            0.00754            301.73938
        0.52010            0.00754            301.72995
        0.52513            0.00754            301.72119
        0.53015            0.00754            301.71310
        0.53518            0.00754            301.70572
        0.54020            0.00754            301.69894
        0.54523            0.00754            301.69296
        0.55025            0.00754            301.68759
        0.55528            0.00754            301.68289
        0.56030            0.00754            301.67883
        0.56533            0.00754            301.67545
        0.57035            0.00754            301.67279
        0.57538            0.00754            301.67075
        0.58040            0.00754            301.66940
        0.58543            0.00754            301.66879
        0.59045            0.00754            301.66879
        0.59548            0.00754            301.66940
        0.60050            0.00754            301.67081
        0.60553            0.00754            301.67291
        0.61055            0.00754            301.67572
        0.61558            0.00754            301.67923
        0.62060            0.00754            301.68353
        0.62563            0.00754            301.68848
        0.63065            0.00754            301.69415
        0.63568            0.00754            301.70062
        0.64070            0.00754            301.70782
        0.64573            0.00754            301.71582
        0.65075            0.00754            301.72464