 title="contour"
 variables="x","y","u","v",
 "p","den","mach","entropy","vmu",
 zone i=         150  j=          80  f=point
  6.2500003E-05 -7.4062501E-03   457.8174      8.2237143E-03   5366235.    
   5.970343      0.4302014       564820.8      0.0000000E+00
  1.8750000E-04 -7.4062501E-03   456.2188      2.6691902E-02   5376592.    
   5.979475      0.4286136       564822.0      0.0000000E+00
  3.1249999E-04 -7.4062501E-03   456.0145      5.6351546E-02   5377196.    
   5.980005      0.4284165       564822.4      0.0000000E+00
  4.3750001E-04 -7.4062501E-03   456.2349      9.4693951E-02   5375319.    
   5.978347      0.4286390       564822.6      0.0000000E+00
  5.6250003E-04 -7.4062501E-03   456.4630      0.1400054       5373416.    
   5.976665      0.4288689       564822.9      0.0000000E+00
  6.8750000E-04 -7.4062501E-03   456.5085      0.1926018       5371612.    
   5.975070      0.4289264       564823.2      0.0000000E+00
  8.1249996E-04 -7.4062501E-03   456.4254      0.2492531       5370271.    
   5.973885      0.4288594       564823.2      0.0000000E+00
  9.3749998E-04 -7.4062501E-03   456.2220      0.3053254       5369578.    
   5.973274      0.4286741       564823.2      0.0000000E+00
  1.0625001E-03 -7.4062501E-03   455.9018      0.3564649       5369240.    
   5.972977      0.4283760       564823.1      0.0000000E+00
  1.1875000E-03 -7.4062501E-03   455.4870      0.4011293       5369116.    
   5.972871      0.4279875       564822.6      0.0000000E+00
  1.3124999E-03 -7.4062501E-03   455.0076      0.4399410       5369144.    
   5.972897      0.4275369       564822.4      0.0000000E+00
  1.4375001E-03 -7.4062501E-03   454.4431      0.4744648       5369424.    
   5.973146      0.4270042       564822.2      0.0000000E+00
  1.5624999E-03 -7.4062501E-03   453.7629      0.5064321       5370166.    
   5.973804      0.4263592       564821.8      0.0000000E+00
  1.6874998E-03 -7.4062501E-03   452.9641      0.5379946       5371430.    
   5.974924      0.4255985       564821.4      0.0000000E+00
  1.8125001E-03 -7.4062501E-03   452.0749      0.5712864       5373064.    
   5.976368      0.4247497       564821.1      0.0000000E+00
  1.9375002E-03 -7.4062501E-03   451.1089      0.6084872       5374942.    
   5.978027      0.4238271       564820.9      0.0000000E+00
  2.0625002E-03 -7.4062501E-03   450.0539      0.6515991       5377099.    
   5.979931      0.4228183       564821.0      0.0000000E+00
  2.1875000E-03 -7.4062501E-03   448.8893      0.7024332       5379614.    
   5.982153      0.4217040       564820.8      0.0000000E+00
  2.3125000E-03 -7.4062501E-03   447.6010      0.7623218       5382530.    
   5.984729      0.4204704       564820.5      0.0000000E+00
  2.4375001E-03 -7.4062501E-03   446.1786      0.8319579       5385862.    
   5.987672      0.4191076       564820.1      0.0000000E+00
  2.5624998E-03 -7.4062501E-03   444.6110      0.9112015       5389624.    
   5.990993      0.4176054       564819.9      0.0000000E+00
  2.6875001E-03 -7.4062501E-03   442.8852      0.9996015       5393848.    
   5.994721      0.4159509       564819.7      0.0000000E+00
  2.8124999E-03 -7.4062501E-03   440.9874       1.096808       5398564.    
   5.998880      0.4141315       564819.7      0.0000000E+00
  2.9374999E-03 -7.4062501E-03   438.9030       1.203214       5403801.    
   6.003501      0.4121332       564819.4      0.0000000E+00
  3.0624999E-03 -7.4062501E-03   436.6158       1.320371       5409595.    
   6.008612      0.4099406       564819.1      0.0000000E+00
  3.1874999E-03 -7.4062501E-03   434.1054       1.450806       5416002.    
   6.014260      0.4075342       564818.9      0.0000000E+00
  3.3125000E-03 -7.4062501E-03   431.3474       1.598190       5423093.    
   6.020510      0.4048909       564818.8      0.0000000E+00
  3.4375000E-03 -7.4062501E-03   428.3111       1.767077       5430950.    
   6.027431      0.4019814       564818.9      0.0000000E+00
  3.5624998E-03 -7.4062501E-03   424.9573       1.963206       5439678.    
   6.035116      0.3987685       564819.1      0.0000000E+00
  3.6875000E-03 -7.4062501E-03   421.2366       2.193905       5449398.    
   6.043671      0.3952053       564819.3      0.0000000E+00
  3.8125000E-03 -7.4062501E-03   417.0854       2.468491       5460262.    
   6.053228      0.3912318       564819.6      0.0000000E+00
  3.9375001E-03 -7.4062501E-03   412.4222       2.799429       5472456.    
   6.063953      0.3867708       564819.8      0.0000000E+00
  4.0625003E-03 -7.4062501E-03   407.1414       3.204560       5486236.    
   6.076063      0.3817221       564820.4      0.0000000E+00
  4.1875001E-03 -7.4062501E-03   401.0994       3.711424       5501922.    
   6.089838      0.3759508       564821.5      0.0000000E+00
  4.3125004E-03 -7.4062501E-03   394.0967       4.369555       5519994.    
   6.105712      0.3692692       564821.0      0.0000000E+00
  4.4375001E-03 -7.4062501E-03   385.8111       5.288448       5541038.    
   6.124242      0.3613773       564813.7      0.0000000E+00
  4.5624999E-03 -7.4062501E-03   375.7744       6.728023       5566354.    
   6.146426      0.3518337       564815.2      0.0000000E+00
  4.6874997E-03 -7.4062501E-03   362.8451       9.404820       5595016.    
   6.170629      0.3395830       564919.2      0.0000000E+00
  4.8125000E-03 -7.4062501E-03   348.5382       15.03383       5625964.    
   6.196031      0.3261573       565111.1      0.0000000E+00
  4.9374998E-03 -7.4062501E-03   324.1918       29.10470       5611532.    
   6.181862      0.3043539       565289.8      0.0000000E+00
  5.0858585E-03 -7.3753903E-03   318.1605       65.87962       5795424.    
   6.340714      0.3027637       565445.9      0.0000000E+00
  5.2575758E-03 -7.3136720E-03   346.5758       95.51487       5656808.    
   6.219858      0.3358259       565468.0      0.0000000E+00
  5.4292935E-03 -7.2519532E-03   371.8043       112.7000       5565587.    
   6.140526      0.3635498       565421.0      0.0000000E+00
  5.6010108E-03 -7.1902345E-03   388.9606       124.9873       5514898.    
   6.096217      0.3826662       565407.4      0.0000000E+00
  5.7727275E-03 -7.1285153E-03   402.5972       133.8726       5471934.    
   6.058549      0.3977155       565400.8      0.0000000E+00
  5.9444448E-03 -7.0667970E-03   414.4444       140.5718       5434098.    
   6.025277      0.4105365       565400.9      0.0000000E+00
  6.1161625E-03 -7.0050787E-03   425.1854       145.9237       5400342.    
   5.995518      0.4219638       565405.0      0.0000000E+00
  6.2878798E-03 -6.9433590E-03   435.2022       150.4593       5369531.    
   5.968309      0.4324940       565410.2      0.0000000E+00
  6.4595970E-03 -6.8816412E-03   444.7281       154.4915       5340686.    
   5.942810      0.4424322       565415.0      0.0000000E+00
  6.6313148E-03 -6.8199215E-03   453.9129       158.2060       5313094.    
   5.918422      0.4519725       565416.0      0.0000000E+00
  6.8030320E-03 -6.7582028E-03   462.8567       161.7160       5286257.    
   5.894699      0.4612412       565414.2      0.0000000E+00
  6.9747493E-03 -6.6964841E-03   471.6163       165.0882       5259784.    
   5.871300      0.4703123       565409.1      0.0000000E+00
  7.1464670E-03 -6.6347653E-03   480.2500       168.3651       5233410.    
   5.847986      0.4792525       565401.3      0.0000000E+00
  7.3181842E-03 -6.5730461E-03   488.8038       171.5744       5206952.    
   5.824591      0.4881128       565391.4      0.0000000E+00
  7.4899010E-03 -6.5113283E-03   497.3193       174.7372       5180277.    
   5.800992      0.4969378       565379.7      0.0000000E+00
  7.6616192E-03 -6.4496091E-03   505.8381       177.8712       5153236.    
   5.777049      0.5057716       565367.1      0.0000000E+00
  7.8333355E-03 -6.3878903E-03   514.3984       180.9929       5125692.    
   5.752636      0.5146551       565353.7      0.0000000E+00
  8.0050528E-03 -6.3261716E-03   523.0379       184.1182       5097504.    
   5.727623      0.5236284       565340.2      0.0000000E+00
  8.1767710E-03 -6.2644528E-03   531.7949       187.2627       5068519.    
   5.701862      0.5327328       565327.4      0.0000000E+00
  8.3484882E-03 -6.2027345E-03   540.7100       190.4422       5038579.    
   5.675209      0.5420119       565315.6      0.0000000E+00
  8.5202055E-03 -6.1410153E-03   549.8257       193.6724       5007498.    
   5.647493      0.5515119       565304.8      0.0000000E+00
  8.6919218E-03 -6.0792970E-03   559.1854       196.9703       4975085.    
   5.618533      0.5612803       565295.6      0.0000000E+00
  8.8636400E-03 -6.0175783E-03   568.8373       200.3560       4941126.    
   5.588134      0.5713705       565287.9      0.0000000E+00
  9.0353573E-03 -5.9558591E-03   578.8353       203.8512       4905346.    
   5.556046      0.5818435       565281.4      0.0000000E+00
  9.2070745E-03 -5.8941403E-03   589.2366       207.4809       4867456.    
   5.521998      0.5927646       565276.3      0.0000000E+00
  9.3787918E-03 -5.8324216E-03   600.1128       211.2702       4827088.    
   5.485649      0.6042137       565272.6      0.0000000E+00
  9.5505090E-03 -5.7707033E-03   611.5584       215.2416       4783794.    
   5.446586      0.6162930       565269.7      0.0000000E+00
  9.7222263E-03 -5.7089846E-03   623.7128       219.4177       4737070.    
   5.404334      0.6291468       565268.4      0.0000000E+00
  9.8939445E-03 -5.6472658E-03   636.7623       223.8282       4686288.    
   5.358304      0.6429677       565268.1      0.0000000E+00
  1.0065662E-02 -5.5855461E-03   650.9360       228.5268       4630724.    
   5.307810      0.6579987       565269.5      0.0000000E+00
  1.0237379E-02 -5.5238283E-03   666.5304       233.5932       4569252.    
   5.251791      0.6745616       565272.3      0.0000000E+00
  1.0409095E-02 -5.4621091E-03   683.9407       239.1366       4500276.    
   5.188736      0.6930898       565277.3      0.0000000E+00
  1.0580814E-02 -5.4003904E-03   703.7490       245.3029       4421404.    
   5.116373      0.7142213       565285.6      0.0000000E+00
  1.0752530E-02 -5.3386716E-03   726.8786       252.2878       4328888.    
   5.031117      0.7389588       565300.3      0.0000000E+00
  1.0924248E-02 -5.2769529E-03   754.9075       260.3667       4216648.    
   4.927097      0.7690007       565330.6      0.0000000E+00
  1.1095964E-02 -5.2152341E-03   790.8184       269.9635       4073927.    
   4.793922      0.8075446       565382.8      0.0000000E+00
  1.1267683E-02 -5.1535154E-03   840.4232       281.9382       3879874.    
   4.611466      0.8609571       565432.1      0.0000000E+00
  1.1439400E-02 -5.0917966E-03   919.9655       298.6097       3589555.    
   4.349739      0.9485253       563088.9      0.0000000E+00
  1.1611118E-02 -5.0300774E-03   1035.943       315.2630       3116942.    
   3.916853       1.081405       557991.7      0.0000000E+00
  1.1782834E-02 -4.9683591E-03   1254.815       309.6758       2853289.    
   3.545984       1.283596       578998.4      0.0000000E+00
  1.2460817E-02 -5.0957124E-03   1255.041      -30.61699       1281948.    
   1.727491       1.298298       643764.0      0.0000000E+00
  1.3645063E-02 -5.4121376E-03   1163.483      -307.4752       1503952.    
   1.955645       1.222537       645964.3      0.0000000E+00
  1.4829310E-02 -5.7285624E-03   1156.748      -313.2638       1666158.    
   2.152841       1.213585       634046.4      0.0000000E+00
  1.6013557E-02 -6.0449881E-03   1164.883      -313.9874       1688015.    
   2.190118       1.224257       628618.8      0.0000000E+00
  1.7197803E-02 -6.3614128E-03   1185.049      -316.2129       1654033.    
   2.156176       1.247546       628205.9      0.0000000E+00
  1.8382050E-02 -6.6778380E-03   1218.270      -320.5651       1573659.    
   2.072086       1.287787       628401.1      0.0000000E+00
  1.9566294E-02 -6.9942628E-03   1261.654      -328.5465       1463348.    
   1.954627       1.342335       628936.9      0.0000000E+00
  2.0750541E-02 -7.3106885E-03   1307.272      -338.7788       1347500.    
   1.828450       1.401433       629947.4      0.0000000E+00
  2.1934787E-02 -7.6271128E-03   1352.419      -349.1934       1235262.    
   1.703852       1.461425       631182.6      0.0000000E+00
  2.3119034E-02 -7.9435380E-03   1395.823      -359.2896       1130304.    
   1.585230       1.520633       632527.0      0.0000000E+00
  2.4303284E-02 -8.2599632E-03   1436.909      -368.9946       1034147.    
   1.474567       1.578165       633964.8      0.0000000E+00
  2.5487529E-02 -8.5763885E-03   1475.467      -378.2535       947140.9    
   1.372648       1.633573       635462.6      0.0000000E+00
  2.6671777E-02 -8.8928128E-03   1511.490      -387.0461       868990.7    
   1.279541       1.686674       636981.4      0.0000000E+00
  2.7856022E-02 -9.2092380E-03   1545.092      -395.3714       799055.2    
   1.194866       1.737452       638491.0      0.0000000E+00
  2.9040270E-02 -9.5256632E-03   1576.450      -403.2395       736543.4    
   1.118004       1.785992       639970.4      0.0000000E+00
  3.0224515E-02 -9.8420884E-03   1605.772      -410.6854       680635.3    
   1.048252       1.832452       641398.5      0.0000000E+00
  3.1408761E-02 -1.0158514E-02   1633.275      -417.7480       630587.2    
  0.9849436       1.877014       642757.1      0.0000000E+00
  3.2593008E-02 -1.0474939E-02   1659.143      -424.4661       585726.8    
  0.9274452       1.919827       644038.6      0.0000000E+00
  3.3777256E-02 -1.0791363E-02   1683.502      -430.8501       545459.8    
  0.8751526       1.960944       645263.6      0.0000000E+00
  3.4961503E-02 -1.1107789E-02   1706.436      -436.9012       509226.5    
  0.8274741       2.000386       646458.1      0.0000000E+00
  3.6145747E-02 -1.1424214E-02   1728.036      -442.6623       476565.2    
  0.7839399       2.038210       647628.7      0.0000000E+00
  3.7329994E-02 -1.1740639E-02   1748.264      -448.2139       447219.3    
  0.7443393       2.074294       648767.6      0.0000000E+00
  3.8514238E-02 -1.2057063E-02   1766.945      -453.5656       421097.8    
  0.7086672       2.108260       649868.8      0.0000000E+00
  3.9698485E-02 -1.2373487E-02   1784.046      -458.5348       397877.1    
  0.6766187       2.139977       650901.8      0.0000000E+00
  4.0882733E-02 -1.2689915E-02   1800.339      -462.7544       376532.2    
  0.6469248       2.170638       651818.1      0.0000000E+00
  4.2066980E-02 -1.3006339E-02   1818.142      -466.0708       355214.9    
  0.6169699       2.203683       652767.5      0.0000000E+00
  4.3251228E-02 -1.3322764E-02   1840.493      -470.4341       332395.0    
  0.5839288       2.243077       654698.0      0.0000000E+00
  4.4435471E-02 -1.3639188E-02   1860.531      -476.1272       313237.2    
  0.5559131       2.279255       656394.1      0.0000000E+00
  4.5619715E-02 -1.3955615E-02   1859.491      -483.8488       301126.4    
  0.5413111       2.295006       652537.9      0.0000000E+00
  4.6803970E-02 -1.4272040E-02   1853.225      -490.3615       299666.0    
  0.5411538       2.294981       649610.9      0.0000000E+00
  4.7988214E-02 -1.4588464E-02   1828.571      -494.2422       309383.4    
  0.5546499       2.259430       650179.2      0.0000000E+00
  4.9172461E-02 -1.4904889E-02   1755.565      -497.1493       346794.3    
  0.5999058       2.137903       660217.9      0.0000000E+00
  5.0356705E-02 -1.5221315E-02   1573.874      -487.7060       458590.0    
  0.7255614       1.846373       687029.1      0.0000000E+00
  5.1540956E-02 -1.5537741E-02   1278.889      -428.7779       668812.8    
  0.9358364       1.421436       727097.5      0.0000000E+00
  5.2725200E-02 -1.5854163E-02   1043.528      -329.4213       846667.0    
   1.104603       1.113509       746917.6      0.0000000E+00
  5.3909447E-02 -1.6170589E-02   924.3209      -266.7853       941690.2    
   1.217584      0.9745602       734817.1      0.0000000E+00
  5.5093698E-02 -1.6487015E-02   859.0655      -234.0466       984274.0    
   1.282563      0.9054615       719344.6      0.0000000E+00
  5.6277942E-02 -1.6803438E-02   816.5928      -217.1881       998866.6    
   1.313933      0.8633660       708117.6      0.0000000E+00
  5.7462189E-02 -1.7119864E-02   785.4455      -207.6181       999766.1    
   1.322731      0.8324978       702820.4      0.0000000E+00
  5.8646433E-02 -1.7436290E-02   765.3875      -199.2500       996076.4    
   1.322735      0.8119417       700224.1      0.0000000E+00
  5.9830684E-02 -1.7752714E-02   754.3397      -194.5217       987763.8    
   1.318513      0.8018205       697183.2      0.0000000E+00
  6.1014928E-02 -1.8069141E-02   747.0748      -190.9414       974768.8    
   1.310170      0.7964026       693535.4      0.0000000E+00
  6.2199175E-02 -1.8385567E-02   739.9353      -187.7324       958506.0    
   1.298913      0.7916762       689420.4      0.0000000E+00
  6.3383423E-02 -1.8701991E-02   730.3235      -184.1320       941086.6    
   1.285638      0.7842543       685709.5      0.0000000E+00
  6.4567663E-02 -1.9018415E-02   716.0476      -179.2757       923653.2    
   1.270377      0.7712065       683209.1      0.0000000E+00
  6.5751918E-02 -1.9334840E-02   695.3535      -172.3478       906164.3    
   1.252567      0.7503494       682304.1      0.0000000E+00
  6.6936165E-02 -1.9651264E-02   665.3813      -162.2808       888170.4    
   1.231732      0.7185257       683039.5      0.0000000E+00
  6.8120405E-02 -1.9967688E-02   625.0270      -148.8155       868517.1    
   1.206957      0.6747516       685246.0      0.0000000E+00
  6.9304653E-02 -2.0284113E-02   578.9586      -134.4633       846933.8    
   1.178974      0.6247374       688262.8      0.0000000E+00
  7.0488892E-02 -2.0600541E-02   535.9794      -122.8331       824122.8    
   1.150507      0.5787979       690671.3      0.0000000E+00
  7.1673147E-02 -2.0916965E-02   500.6418      -114.4698       801142.1    
   1.123757      0.5418621       691611.2      0.0000000E+00
  7.2857395E-02 -2.1233391E-02   472.5319      -108.1015       778153.8    
   1.098174      0.5130101       691544.1      0.0000000E+00
  7.4041642E-02 -2.1549815E-02   449.8780      -103.0868       755222.9    
   1.072711      0.4900336       691300.1      0.0000000E+00
  7.5225882E-02 -2.1866240E-02   431.5350      -99.62403       733822.3    
   1.048400      0.4716003       691396.2      0.0000000E+00
  7.6410130E-02 -2.2182668E-02   417.3782      -98.27942       715491.9    
   1.027002      0.4576630       691870.4      0.0000000E+00
  7.7594377E-02 -2.2499092E-02   407.7685      -98.37450       700860.7    
   1.009600      0.4485094       692473.8      0.0000000E+00
  7.8778625E-02 -2.2815516E-02   402.4669      -99.20286       690046.8    
  0.9966493      0.4437972       692971.2      0.0000000E+00
  7.9962872E-02 -2.3131942E-02   400.4002      -100.6112       682109.5    
  0.9872355      0.4424739       693240.4      0.0000000E+00
  8.1147127E-02 -2.3448367E-02   400.3840      -102.1963       676578.4    
  0.9809362      0.4432597       693187.6      0.0000000E+00
  8.2331367E-02 -2.3764791E-02   402.8734      -104.5411       672660.8    
  0.9768521      0.4468379       692806.2      0.0000000E+00
  8.3515614E-02 -2.4081215E-02   408.7370      -107.7337       670176.2    
  0.9746252      0.4541171       692235.1      0.0000000E+00
  8.4699854E-02 -2.4397641E-02   415.9268      -110.2637       669291.6    
  0.9740852      0.4624567       691804.2      0.0000000E+00
  8.5884109E-02 -2.4714066E-02   422.4187      -112.5094       669215.8    
  0.9744885      0.4699435       691365.2      0.0000000E+00
  8.7068357E-02 -2.5030494E-02   428.5857      -114.6558       669654.3    
  0.9761855      0.4772029       690303.2      0.0000000E+00
  8.8252597E-02 -2.5346918E-02   435.2156      -116.8459       670760.4    
  0.9798767      0.4852157       688163.2      0.0000000E+00
  8.9436844E-02 -2.5663342E-02   442.3192      -118.8757       672253.6    
  0.9854456      0.4940195       684787.8      0.0000000E+00
  9.0621099E-02 -2.5979767E-02   448.9435      -120.5800       674019.4    
  0.9912381      0.5022092       681535.1      0.0000000E+00
  9.1805339E-02 -2.6296191E-02   454.4762      -121.6947       675757.1    
  0.9959259      0.5088395       679242.0      0.0000000E+00
  9.2989586E-02 -2.6612617E-02   458.8281      -122.7168       676918.5    
  0.9994060      0.5141269       677425.5      0.0000000E+00
  9.4173826E-02 -2.6929041E-02   463.2669      -123.5242       678281.8    
   1.003027      0.5194112       675703.8      0.0000000E+00
  6.2500003E-05 -7.2187493E-03   457.8408      3.5067942E-02   5366084.    
   5.970209      0.4302246       564820.8      0.0000000E+00
  1.8750000E-04 -7.2187493E-03   456.2454      0.1056467       5376378.    
   5.979287      0.4286404       564822.0      0.0000000E+00
  3.1249999E-04 -7.2187493E-03   456.0349      0.2077219       5376955.    
   5.979793      0.4284378       564822.3      0.0000000E+00
  4.3750001E-04 -7.2187493E-03   456.2448      0.3256411       5375122.    
   5.978175      0.4286500       564822.4      0.0000000E+00
  5.6250003E-04 -7.2187493E-03   456.4621      0.4559858       5373280.    
   5.976545      0.4288693       564822.8      0.0000000E+00
  6.8750000E-04 -7.2187493E-03   456.4986      0.6059783       5371504.    
   5.974974      0.4289184       564823.2      0.0000000E+00
  8.1249996E-04 -7.2187493E-03   456.4130      0.7632679       5370229.    
   5.973849      0.4288486       564823.2      0.0000000E+00
  9.3749998E-04 -7.2187493E-03   456.2095      0.9199200       5369572.    
   5.973269      0.4286631       564823.2      0.0000000E+00
  1.0625001E-03 -7.2187493E-03   455.8927       1.067179       5369244.    
   5.972979      0.4283684       564823.3      0.0000000E+00
  1.1875000E-03 -7.2187493E-03   455.4829       1.199076       5369120.    
   5.972875      0.4279849       564822.6      0.0000000E+00
  1.3124999E-03 -7.2187493E-03   455.0076       1.315552       5369149.    
   5.972901      0.4275385       564822.4      0.0000000E+00
  1.4375001E-03 -7.2187493E-03   454.4469       1.419778       5369422.    
   5.973145      0.4270097       564822.1      0.0000000E+00
  1.5624999E-03 -7.2187493E-03   453.7714       1.517234       5370147.    
   5.973786      0.4263694       564821.9      0.0000000E+00
  1.6874998E-03 -7.2187493E-03   452.9797       1.615403       5371370.    
   5.974871      0.4256160       564821.5      0.0000000E+00
  1.8125001E-03 -7.2187493E-03   452.0994       1.721987       5372944.    
   5.976262      0.4247765       564821.1      0.0000000E+00
  1.9375002E-03 -7.2187493E-03   451.1430       1.843621       5374750.    
   5.977857      0.4238637       564821.0      0.0000000E+00
  2.0625002E-03 -7.2187493E-03   450.0971       1.985669       5376825.    
   5.979690      0.4228648       564820.9      0.0000000E+00
  2.1875000E-03 -7.2187493E-03   448.9423       2.152984       5379250.    
   5.981833      0.4217611       564820.6      0.0000000E+00
  2.3125000E-03 -7.2187493E-03   447.6645       2.349308       5382064.    
   5.984319      0.4205390       564820.4      0.0000000E+00
  2.4375001E-03 -7.2187493E-03   446.2537       2.576346       5385284.    
   5.987164      0.4191892       564819.9      0.0000000E+00
  2.5624998E-03 -7.2187493E-03   444.6990       2.833733       5388928.    
   5.990379      0.4177011       564819.9      0.0000000E+00
  2.6875001E-03 -7.2187493E-03   442.9876       3.120154       5393022.    
   5.993991      0.4160630       564819.7      0.0000000E+00
  2.8124999E-03 -7.2187493E-03   441.1060       3.434761       5397592.    
   5.998024      0.4142619       564819.6      0.0000000E+00
  2.9374999E-03 -7.2187493E-03   439.0402       3.779246       5402670.    
   6.002504      0.4122847       564819.2      0.0000000E+00
  3.0624999E-03 -7.2187493E-03   436.7742       4.158277       5408288.    
   6.007460      0.4101161       564819.0      0.0000000E+00
  3.1874999E-03 -7.2187493E-03   434.2886       4.580034       5414496.    
   6.012932      0.4077383       564819.0      0.0000000E+00
  3.3125000E-03 -7.2187493E-03   431.5604       5.056052       5421358.    
   6.018980      0.4051292       564818.9      0.0000000E+00
  3.4375000E-03 -7.2187493E-03   428.5599       5.601099       5428948.    
   6.025669      0.4022612       564818.8      0.0000000E+00
  3.5624998E-03 -7.2187493E-03   425.2503       6.233618       5437364.    
   6.033079      0.3990996       564818.9      0.0000000E+00
  3.6875000E-03 -7.2187493E-03   421.5850       6.977141       5446707.    
   6.041302      0.3956012       564819.2      0.0000000E+00
  3.8125000E-03 -7.2187493E-03   417.5049       7.861787       5457104.    
   6.050451      0.3917112       564819.5      0.0000000E+00
  3.9375001E-03 -7.2187493E-03   412.9352       8.928232       5468710.    
   6.060659      0.3873608       564819.8      0.0000000E+00
  4.0625003E-03 -7.2187493E-03   407.7809       10.23434       5481726.    
   6.072100      0.3824628       564820.2      0.0000000E+00
  4.1875001E-03 -7.2187493E-03   401.9138       11.86971       5496389.    
   6.084978      0.3769014       564821.4      0.0000000E+00
  4.3125004E-03 -7.2187493E-03   395.1615       13.98479       5513076.    
   6.099641      0.3705240       564820.7      0.0000000E+00
  4.4375001E-03 -7.2187493E-03   387.2490       16.87400       5532105.    
   6.116441      0.3630958       564809.4      0.0000000E+00
  4.5624999E-03 -7.2187493E-03   377.9413       21.07209       5554400.    
   6.136000      0.3544354       564809.0      0.0000000E+00
  4.6874997E-03 -7.2187493E-03   366.7326       27.58510       5576569.    
   6.154643      0.3441971       564899.9      0.0000000E+00
  4.8125000E-03 -7.2187493E-03   356.2255       37.27564       5599508.    
   6.173524      0.3350396       565038.7      0.0000000E+00
  4.9374998E-03 -7.2187493E-03   343.6993       51.15669       5581556.    
   6.156902      0.3251284       565143.8      0.0000000E+00
  5.0858585E-03 -7.1886717E-03   342.7658       78.30949       5620074.    
   6.189886      0.3287236       565225.7      0.0000000E+00
  5.2575758E-03 -7.1285153E-03   358.8137       98.24072       5543692.    
   6.122631      0.3482972       565271.6      0.0000000E+00
  5.4292935E-03 -7.0683598E-03   375.0402       110.6320       5484189.    
   6.070395      0.3664908       565274.0      0.0000000E+00
  5.6010108E-03 -7.0082033E-03   389.0164       120.6903       5452842.    
   6.042680      0.3819804       565293.1      0.0000000E+00
  5.7727275E-03 -6.9480464E-03   401.8495       128.7805       5424064.    
   6.017290      0.3959543       565300.9      0.0000000E+00
  5.9444448E-03 -6.8878899E-03   413.6717       135.2889       5396424.    
   5.992915      0.4086036       565303.9      0.0000000E+00
  6.1161625E-03 -6.8277344E-03   424.6038       140.7062       5369466.    
   5.969123      0.4201588       565306.2      0.0000000E+00
  6.2878798E-03 -6.7675780E-03   434.8282       145.4093       5342986.    
   5.945723      0.4308850       565309.4      0.0000000E+00
  6.4595970E-03 -6.7074215E-03   444.5208       149.6426       5316864.    
   5.922617      0.4410084       565312.2      0.0000000E+00
  6.6313148E-03 -6.6472655E-03   453.8265       153.5677       5290971.    
   5.899703      0.4507054       565313.6      0.0000000E+00
  6.8030320E-03 -6.5871095E-03   462.8531       157.2898       5265164.    
   5.876859      0.4601039       565313.0      0.0000000E+00
  6.9747493E-03 -6.5269526E-03   471.6793       160.8692       5239338.    
   5.853986      0.4692923       565310.8      0.0000000E+00
  7.1464670E-03 -6.4667966E-03   480.3697       164.3372       5213376.    
   5.830983      0.4783384       565307.2      0.0000000E+00
  7.3181842E-03 -6.4066402E-03   488.9766       167.7184       5187177.    
   5.807756      0.4872973       565302.0      0.0000000E+00
  7.4899010E-03 -6.3464842E-03   497.5467       171.0376       5160624.    
   5.784197      0.4962189       565296.1      0.0000000E+00
  7.6616192E-03 -6.2863282E-03   506.1234       174.3163       5133588.    
   5.760189      0.5051503       565289.2      0.0000000E+00
  7.8333355E-03 -6.2261717E-03   514.7485       177.5742       5105934.    
   5.735608      0.5141362       565281.9      0.0000000E+00
  8.0050528E-03 -6.1660153E-03   523.4615       180.8298       5077530.    
   5.710327      0.5232195       565274.8      0.0000000E+00
  8.1767710E-03 -6.1058593E-03   532.3037       184.1011       5048220.    
   5.684205      0.5324450       565268.1      0.0000000E+00
  8.3484882E-03 -6.0457033E-03   541.3186       187.4057       5017844.    
   5.657092      0.5418597       565261.9      0.0000000E+00
  8.5202055E-03 -5.9855464E-03   550.5526       190.7613       4986214.    
   5.628815      0.5515138       565256.6      0.0000000E+00
  8.6919218E-03 -5.9253904E-03   560.0565       194.1872       4953130.    
   5.599186      0.5614627       565252.2      0.0000000E+00
  8.8636400E-03 -5.8652344E-03   569.8880       197.7053       4918356.    
   5.567992      0.5717697       565248.8      0.0000000E+00
  9.0353573E-03 -5.8050780E-03   580.1156       201.3384       4881619.    
   5.534980      0.5825089       565246.2      0.0000000E+00
  9.2070745E-03 -5.7449220E-03   590.8186       205.1128       4842612.    
   5.499865      0.5937667       565244.3      0.0000000E+00
  9.3787918E-03 -5.6847655E-03   602.0936       209.0536       4800978.    
   5.462311      0.6056460       565243.2      0.0000000E+00
  9.5505090E-03 -5.6246095E-03   614.0538       213.1835       4756292.    
   5.421926      0.6182660       565242.8      0.0000000E+00
  9.7222263E-03 -5.5644535E-03   626.8274       217.5265       4708042.    
   5.378224      0.6317629       565243.1      0.0000000E+00