 title="contour"
 variables="x","y"
 zone i=         151  j=          81  f=point
  0.0000000E+00 -7.4999998E-03
  1.2500001E-04 -7.4999998E-03
  2.5000001E-04 -7.4999998E-03
  3.7500000E-04 -7.4999998E-03
  5.0000002E-04 -7.4999998E-03
  6.2499999E-04 -7.4999998E-03
  7.5000001E-04 -7.4999998E-03
  8.7499997E-04 -7.4999998E-03
  1.0000000E-03 -7.4999998E-03
  1.1250000E-03 -7.4999998E-03
  1.2500000E-03 -7.4999998E-03
  1.3750000E-03 -7.4999998E-03
  1.5000000E-03 -7.4999998E-03
  1.6249999E-03 -7.4999998E-03
  1.7499999E-03 -7.4999998E-03
  1.8750000E-03 -7.4999998E-03
  2.0000001E-03 -7.4999998E-03
  2.1250001E-03 -7.4999998E-03
  2.2499999E-03 -7.4999998E-03
  2.3749999E-03 -7.4999998E-03
  2.4999999E-03 -7.4999998E-03
  2.6249997E-03 -7.4999998E-03
  2.7500000E-03 -7.4999998E-03
  2.8749998E-03 -7.4999998E-03
  3.0000000E-03 -7.4999998E-03
  3.1249998E-03 -7.4999998E-03
  3.2499998E-03 -7.4999998E-03
  3.3750001E-03 -7.4999998E-03
  3.4999999E-03 -7.4999998E-03
  3.6250001E-03 -7.4999998E-03
  3.7499999E-03 -7.4999998E-03
  3.8749997E-03 -7.4999998E-03
  4.0000002E-03 -7.4999998E-03
  4.1250000E-03 -7.4999998E-03
  4.2500002E-03 -7.4999998E-03
  4.3750000E-03 -7.4999998E-03
  4.4999998E-03 -7.4999998E-03
  4.6250001E-03 -7.4999998E-03
  4.7499998E-03 -7.4999998E-03
  4.8750001E-03 -7.4999998E-03
  4.9999999E-03 -7.4999998E-03
  5.1717171E-03 -7.4374997E-03
  5.3434349E-03 -7.3750000E-03
  5.5151521E-03 -7.3124999E-03
  5.6868694E-03 -7.2500003E-03
  5.8585862E-03 -7.1874997E-03
  6.0303039E-03 -7.1249995E-03
  6.2020211E-03 -7.0624999E-03
  6.3737384E-03 -6.9999998E-03
  6.5454561E-03 -6.9375001E-03
  6.7171734E-03 -6.8750000E-03
  6.8888906E-03 -6.8124998E-03
  7.0606079E-03 -6.7500002E-03
  7.2323256E-03 -6.6874996E-03
  7.4040424E-03 -6.6249999E-03
  7.5757597E-03 -6.5624998E-03
  7.7474769E-03 -6.4999997E-03
  7.9191942E-03 -6.4375000E-03
  8.0909124E-03 -6.3749999E-03
  8.2626296E-03 -6.3125002E-03
  8.4343469E-03 -6.2499996E-03
  8.6060641E-03 -6.1874995E-03
  8.7777814E-03 -6.1249998E-03
  8.9494986E-03 -6.0624997E-03
  9.1212159E-03 -6.0000001E-03
  9.2929332E-03 -5.9374999E-03
  9.4646504E-03 -5.8749998E-03
  9.6363677E-03 -5.8125001E-03
  9.8080849E-03 -5.7499995E-03
  9.9798031E-03 -5.6874999E-03
  1.0151519E-02 -5.6249998E-03
  1.0323237E-02 -5.5624996E-03
  1.0494954E-02 -5.5000000E-03
  1.0666672E-02 -5.4374998E-03
  1.0838389E-02 -5.3750002E-03
  1.1010107E-02 -5.3125001E-03
  1.1181824E-02 -5.2499995E-03
  1.1353541E-02 -5.1874998E-03
  1.1525258E-02 -5.1249997E-03
  1.1696977E-02 -5.0625000E-03
  1.1868694E-02 -4.9999999E-03
  1.3058711E-02 -5.3188642E-03
  1.4248730E-02 -5.6377286E-03
  1.5438747E-02 -5.9565930E-03
  1.6628766E-02 -6.2754578E-03
  1.7818784E-02 -6.5943217E-03
  1.9008802E-02 -6.9131861E-03
  2.0198818E-02 -7.2320509E-03
  2.1388838E-02 -7.5509152E-03
  2.2578856E-02 -7.8697791E-03
  2.3768876E-02 -8.1886435E-03
  2.4958894E-02 -8.5075088E-03
  2.6148910E-02 -8.8263722E-03
  2.7338929E-02 -9.1452366E-03
  2.8528947E-02 -9.4641019E-03
  2.9718965E-02 -9.7829653E-03
  3.0908981E-02 -1.0101831E-02
  3.2099001E-02 -1.0420694E-02
  3.3289019E-02 -1.0739558E-02
  3.4479037E-02 -1.1058424E-02
  3.5669055E-02 -1.1377288E-02
  3.6859073E-02 -1.1696152E-02
  3.8049091E-02 -1.2015017E-02
  3.9239109E-02 -1.2333880E-02
  4.0429130E-02 -1.2652745E-02
  4.1619148E-02 -1.2971610E-02
  4.2809166E-02 -1.3290474E-02
  4.3999184E-02 -1.3609339E-02
  4.5189198E-02 -1.3928203E-02
  4.6379216E-02 -1.4247068E-02
  4.7569234E-02 -1.4565932E-02
  4.8759256E-02 -1.4884796E-02
  4.9949273E-02 -1.5203660E-02
  5.1139291E-02 -1.5522525E-02
  5.2329309E-02 -1.5841389E-02
  5.3519327E-02 -1.6160253E-02
  5.4709349E-02 -1.6479118E-02
  5.5899363E-02 -1.6797982E-02
  5.7089381E-02 -1.7116847E-02
  5.8279399E-02 -1.7435711E-02
  5.9469417E-02 -1.7754575E-02
  6.0659435E-02 -1.8073440E-02
  6.1849456E-02 -1.8392306E-02
  6.3039474E-02 -1.8711168E-02
  6.4229488E-02 -1.9030033E-02
  6.5419510E-02 -1.9348897E-02
  6.6609532E-02 -1.9667761E-02
  6.7799546E-02 -1.9986626E-02
  6.8989560E-02 -2.0305490E-02
  7.0179582E-02 -2.0624356E-02
  7.1369596E-02 -2.0943219E-02
  7.2559617E-02 -2.1262085E-02
  7.3749639E-02 -2.1580948E-02
  7.4939653E-02 -2.1899812E-02
  7.6129675E-02 -2.2218678E-02
  7.7319689E-02 -2.2537541E-02
  7.8509703E-02 -2.2856407E-02
  7.9699725E-02 -2.3175269E-02
  8.0889747E-02 -2.3494136E-02
  8.2079761E-02 -2.3813000E-02
  8.3269782E-02 -2.4131862E-02
  8.4459797E-02 -2.4450729E-02
  8.5649811E-02 -2.4769591E-02
  8.6839832E-02 -2.5088457E-02
  8.8029847E-02 -2.5407322E-02
  8.9219876E-02 -2.5726186E-02
  9.0409890E-02 -2.6045050E-02
  9.1599911E-02 -2.6363913E-02
  9.2789926E-02 -2.6682779E-02
  9.3979947E-02 -2.7001642E-02
  9.5169961E-02 -2.7320508E-02
  0.0000000E+00 -7.3124999E-03
  1.2500001E-04 -7.3124999E-03
  2.5000001E-04 -7.3124999E-03
  3.7500000E-04 -7.3124999E-03
  5.0000002E-04 -7.3124999E-03
  6.2499999E-04 -7.3124999E-03
  7.5000001E-04 -7.3124999E-03
  8.7499997E-04 -7.3124999E-03
  1.0000000E-03 -7.3124999E-03
  1.1250000E-03 -7.3124999E-03
  1.2500000E-03 -7.3124999E-03
  1.3750000E-03 -7.3124999E-03
  1.5000000E-03 -7.3124999E-03
  1.6249999E-03 -7.3124999E-03
  1.7499999E-03 -7.3124999E-03
  1.8750000E-03 -7.3124999E-03
  2.0000001E-03 -7.3124999E-03
  2.1250001E-03 -7.3124999E-03
  2.2499999E-03 -7.3124999E-03
  2.3749999E-03 -7.3124999E-03
  2.4999999E-03 -7.3124999E-03
  2.6249997E-03 -7.3124999E-03
  2.7500000E-03 -7.3124999E-03
  2.8749998E-03 -7.3124999E-03
  3.0000000E-03 -7.3124999E-03
  3.1249998E-03 -7.3124999E-03
  3.2499998E-03 -7.3124999E-03
  3.3750001E-03 -7.3124999E-03
  3.4999999E-03 -7.3124999E-03
  3.6250001E-03 -7.3124999E-03
  3.7499999E-03 -7.3124999E-03
  3.8749997E-03 -7.3124999E-03
  4.0000002E-03 -7.3124999E-03
  4.1250000E-03 -7.3124999E-03
  4.2500002E-03 -7.3124999E-03
  4.3750000E-03 -7.3124999E-03
  4.4999998E-03 -7.3124999E-03
  4.6250001E-03 -7.3124999E-03
  4.7499998E-03 -7.3124999E-03
  4.8750001E-03 -7.3124999E-03
  4.9999999E-03 -7.3124999E-03
  5.1717171E-03 -7.2515621E-03
  5.3434349E-03 -7.1906247E-03
  5.5151521E-03 -7.1296874E-03
  5.6868694E-03 -7.0687500E-03
  5.8585862E-03 -7.0078121E-03
  6.0303039E-03 -6.9468748E-03
  6.2020211E-03 -6.8859374E-03
  6.3737384E-03 -6.8250000E-03
  6.5454561E-03 -6.7640627E-03
  6.7171734E-03 -6.7031253E-03
  6.8888906E-03 -6.6421870E-03
  7.0606079E-03 -6.5812496E-03
  7.2323256E-03 -6.5203123E-03
  7.4040424E-03 -6.4593749E-03
  7.5757597E-03 -6.3984375E-03
  7.7474769E-03 -6.3375002E-03
  7.9191942E-03 -6.2765619E-03
  8.0909124E-03 -6.2156245E-03
  8.2626296E-03 -6.1546871E-03
  8.4343469E-03 -6.0937498E-03
  8.6060641E-03 -6.0328124E-03
  8.7777814E-03 -5.9718750E-03
  8.9494986E-03 -5.9109377E-03
  9.1212159E-03 -5.8499998E-03
  9.2929332E-03 -5.7890625E-03
  9.4646504E-03 -5.7281246E-03
  9.6363677E-03 -5.6671873E-03
  9.8080849E-03 -5.6062499E-03
  9.9798031E-03 -5.5453125E-03
  1.0151519E-02 -5.4843747E-03
  1.0323237E-02 -5.4234373E-03
  1.0494954E-02 -5.3625000E-03
  1.0666672E-02 -5.3015626E-03
  1.0838389E-02 -5.2406252E-03
  1.1010107E-02 -5.1796874E-03
  1.1181824E-02 -5.1187496E-03
  1.1353541E-02 -5.0578122E-03
  1.1525258E-02 -4.9968748E-03
  1.1696977E-02 -4.9359375E-03
  1.1868694E-02 -4.8750001E-03
  1.3047168E-02 -5.1889853E-03
  1.4225643E-02 -5.5029714E-03
  1.5404118E-02 -5.8169574E-03
  1.6582593E-02 -6.1309426E-03
  1.7761068E-02 -6.4449287E-03
  1.8939544E-02 -6.7589143E-03
  2.0118019E-02 -7.0729000E-03
  2.1296494E-02 -7.3868856E-03
  2.2474969E-02 -7.7008717E-03
  2.3653444E-02 -8.0148568E-03
  2.4831919E-02 -8.3288429E-03
  2.6010394E-02 -8.6428290E-03
  2.7188871E-02 -8.9568142E-03
  2.8367344E-02 -9.2708003E-03
  2.9545819E-02 -9.5847864E-03
  3.0724293E-02 -9.8987715E-03
  3.1902771E-02 -1.0212758E-02
  3.3081245E-02 -1.0526743E-02
  3.4259718E-02 -1.0840729E-02
  3.5438195E-02 -1.1154715E-02
  3.6616672E-02 -1.1468700E-02
  3.7795145E-02 -1.1782686E-02
  3.8973618E-02 -1.2096671E-02
  4.0152095E-02 -1.2410657E-02
  4.1330568E-02 -1.2724644E-02
  4.2509045E-02 -1.3038629E-02
  4.3687519E-02 -1.3352614E-02
  4.4865992E-02 -1.3666601E-02
  4.6044473E-02 -1.3980586E-02
  4.7222946E-02 -1.4294571E-02
  4.8401423E-02 -1.4608558E-02
  4.9579896E-02 -1.4922543E-02
  5.0758369E-02 -1.5236529E-02
  5.1936846E-02 -1.5550516E-02
  5.3115319E-02 -1.5864501E-02
  5.4293796E-02 -1.6178487E-02
  5.5472273E-02 -1.6492473E-02
  5.6650747E-02 -1.6806457E-02
  5.7829220E-02 -1.7120443E-02
  5.9007697E-02 -1.7434429E-02
  6.0186170E-02 -1.7748415E-02
  6.1364643E-02 -1.8062400E-02
  6.2543124E-02 -1.8376388E-02
  6.3721597E-02 -1.8690372E-02
  6.4900070E-02 -1.9004358E-02
  6.6078544E-02 -1.9318342E-02
  6.7257024E-02 -1.9632330E-02
  6.8435498E-02 -1.9946314E-02
  6.9613971E-02 -2.0260300E-02
  7.0792452E-02 -2.0574285E-02
  7.1970925E-02 -2.0888273E-02
  7.3149398E-02 -2.1202259E-02
  7.4327871E-02 -2.1516245E-02
  7.5506344E-02 -2.1830229E-02
  7.6684818E-02 -2.2144215E-02
  7.7863298E-02 -2.2458199E-02
  7.9041772E-02 -2.2772187E-02
  8.0220252E-02 -2.3086173E-02
  8.1398726E-02 -2.3400158E-02
  8.2577199E-02 -2.3714144E-02
  8.3755672E-02 -2.4028130E-02
  8.4934145E-02 -2.4342114E-02
  8.6112618E-02 -2.4656102E-02
  8.7291099E-02 -2.4970088E-02
  8.8469572E-02 -2.5284072E-02
  8.9648046E-02 -2.5598058E-02
  9.0826526E-02 -2.5912043E-02
  9.2005000E-02 -2.6226029E-02
  9.3183480E-02 -2.6540017E-02
  9.4361953E-02 -2.6854001E-02
  0.0000000E+00 -7.1249995E-03
  1.2500001E-04 -7.1249995E-03
  2.5000001E-04 -7.1249995E-03
  3.7500000E-04 -7.1249995E-03
  5.0000002E-04 -7.1249995E-03
  6.2499999E-04 -7.1249995E-03
  7.5000001E-04 -7.1249995E-03
  8.7499997E-04 -7.1249995E-03
  1.0000000E-03 -7.1249995E-03
  1.1250000E-03 -7.1249995E-03
  1.2500000E-03 -7.1249995E-03
  1.3750000E-03 -7.1249995E-03
  1.5000000E-03 -7.1249995E-03
  1.6249999E-03 -7.1249995E-03
  1.7499999E-03 -7.1249995E-03
  1.8750000E-03 -7.1249995E-03
  2.0000001E-03 -7.1249995E-03
  2.1250001E-03 -7.1249995E-03
  2.2499999E-03 -7.1249995E-03
  2.3749999E-03 -7.1249995E-03
  2.4999999E-03 -7.1249995E-03
  2.6249997E-03 -7.1249995E-03
  2.7500000E-03 -7.1249995E-03
  2.8749998E-03 -7.1249995E-03
  3.0000000E-03 -7.1249995E-03
  3.1249998E-03 -7.1249995E-03
  3.2499998E-03 -7.1249995E-03
  3.3750001E-03 -7.1249995E-03
  3.4999999E-03 -7.1249995E-03
  3.6250001E-03 -7.1249995E-03
  3.7499999E-03 -7.1249995E-03
  3.8749997E-03 -7.1249995E-03
  4.0000002E-03 -7.1249995E-03
  4.1250000E-03 -7.1249995E-03
  4.2500002E-03 -7.1249995E-03
  4.3750000E-03 -7.1249995E-03
  4.4999998E-03 -7.1249995E-03
  4.6250001E-03 -7.1249995E-03
  4.7499998E-03 -7.1249995E-03
  4.8750001E-03 -7.1249995E-03
  4.9999999E-03 -7.1249995E-03
  5.1717171E-03 -7.0656249E-03
  5.3434349E-03 -7.0062499E-03
  5.5151521E-03 -6.9468748E-03
  5.6868694E-03 -6.8875002E-03
  5.8585862E-03 -6.8281251E-03
  6.0303039E-03 -6.7687500E-03
  6.2020211E-03 -6.7093745E-03
  6.3737384E-03 -6.6499999E-03
  6.5454561E-03 -6.5906248E-03
  6.7171734E-03 -6.5312497E-03
  6.8888906E-03 -6.4718747E-03
  7.0606079E-03 -6.4125000E-03
  7.2323256E-03 -6.3531250E-03
  7.4040424E-03 -6.2937494E-03
  7.5757597E-03 -6.2343753E-03
  7.7474769E-03 -6.1749998E-03
  7.9191942E-03 -6.1156247E-03
  8.0909124E-03 -6.0562496E-03
  8.2626296E-03 -5.9968750E-03
  8.4343469E-03 -5.9374999E-03
  8.6060641E-03 -5.8781249E-03
  8.7777814E-03 -5.8187502E-03
  8.9494986E-03 -5.7593752E-03
  9.1212159E-03 -5.6999996E-03
  9.2929332E-03 -5.6406246E-03
  9.4646504E-03 -5.5812499E-03
  9.6363677E-03 -5.5218749E-03
  9.8080849E-03 -5.4624998E-03
  9.9798031E-03 -5.4031252E-03
  1.0151519E-02 -5.3437501E-03
  1.0323237E-02 -5.2843750E-03
  1.0494954E-02 -5.2249995E-03
  1.0666672E-02 -5.1656249E-03
  1.0838389E-02 -5.1062498E-03
  1.1010107E-02 -5.0468748E-03
  1.1181824E-02 -4.9874997E-03
  1.1353541E-02 -4.9281251E-03
  1.1525258E-02 -4.8687500E-03
  1.1696977E-02 -4.8093749E-03
  1.1868694E-02 -4.7499998E-03
  1.3035625E-02 -5.0591067E-03
  1.4202558E-02 -5.3682141E-03
  1.5369489E-02 -5.6773210E-03
  1.6536422E-02 -5.9864284E-03
  1.7703354E-02 -6.2955352E-03
  1.8870285E-02 -6.6046421E-03
  2.0037217E-02 -6.9137495E-03
  2.1204149E-02 -7.2228569E-03
  2.2371082E-02 -7.5319633E-03
  2.3538014E-02 -7.8410711E-03
  2.4704946E-02 -8.1501771E-03
  2.5871877E-02 -8.4592849E-03
  2.7038809E-02 -8.7683918E-03
  2.8205743E-02 -9.0774987E-03
  2.9372675E-02 -9.3866056E-03
  3.0539606E-02 -9.6957134E-03
  3.1706538E-02 -1.0004820E-02
  3.2873470E-02 -1.0313926E-02
  3.4040403E-02 -1.0623034E-02
  3.5207335E-02 -1.0932141E-02
  3.6374267E-02 -1.1241249E-02
  3.7541199E-02 -1.1550356E-02
  3.8708132E-02 -1.1859462E-02
  3.9875064E-02 -1.2168569E-02
  4.1041993E-02 -1.2477676E-02
  4.2208929E-02 -1.2786784E-02
  4.3375857E-02 -1.3095891E-02
  4.4542789E-02 -1.3404997E-02
  4.5709722E-02 -1.3714105E-02
  4.6876654E-02 -1.4023212E-02
  4.8043590E-02 -1.4332320E-02
  4.9210519E-02 -1.4641427E-02
  5.0377447E-02 -1.4950533E-02
  5.1544383E-02 -1.5259640E-02
  5.2711315E-02 -1.5568747E-02
  5.3878248E-02 -1.5877854E-02
  5.5045180E-02 -1.6186962E-02
  5.6212109E-02 -1.6496070E-02
  5.7379045E-02 -1.6805176E-02
  5.8545973E-02 -1.7114282E-02
  5.9712909E-02 -1.7423389E-02
  6.0879838E-02 -1.7732497E-02
  6.2046770E-02 -1.8041605E-02
  6.3213706E-02 -1.8350711E-02
  6.4380638E-02 -1.8659817E-02
  6.5547563E-02 -1.8968925E-02
  6.6714503E-02 -1.9278033E-02
  6.7881428E-02 -1.9587141E-02
  6.9048367E-02 -1.9896246E-02
  7.0215292E-02 -2.0205354E-02
  7.1382225E-02 -2.0514462E-02
  7.2549157E-02 -2.0823566E-02
  7.3716089E-02 -2.1132674E-02
  7.4883029E-02 -2.1441782E-02
  7.6049954E-02 -2.1750888E-02
  7.7216886E-02 -2.2059996E-02
  7.8383818E-02 -2.2369104E-02
  7.9550751E-02 -2.2678209E-02
  8.0717683E-02 -2.2987317E-02
  8.1884608E-02 -2.3296425E-02
  8.3051547E-02 -2.3605533E-02
  8.4218480E-02 -2.3914639E-02
  8.5385419E-02 -2.4223745E-02
  8.6552344E-02 -2.4532851E-02
  8.7719277E-02 -2.4841959E-02
  8.8886209E-02 -2.5151066E-02
  9.0053134E-02 -2.5460174E-02
  9.1220073E-02 -2.5769280E-02
  9.2387006E-02 -2.6078388E-02
  9.3553931E-02 -2.6387496E-02
  0.0000000E+00 -6.9375001E-03
  1.2500001E-04 -6.9375001E-03
  2.5000001E-04 -6.9375001E-03
  3.7500000E-04 -6.9375001E-03
  5.0000002E-04 -6.9375001E-03
  6.2499999E-04 -6.9375001E-03
  7.5000001E-04 -6.9375001E-03
  8.7499997E-04 -6.9375001E-03
  1.0000000E-03 -6.9375001E-03
  1.1250000E-03 -6.9375001E-03
  1.2500000E-03 -6.9375001E-03
  1.3750000E-03 -6.9375001E-03
  1.5000000E-03 -6.9375001E-03
  1.6249999E-03 -6.9375001E-03
  1.7499999E-03 -6.9375001E-03
  1.8750000E-03 -6.9375001E-03
  2.0000001E-03 -6.9375001E-03
  2.1250001E-03 -6.9375001E-03
  2.2499999E-03 -6.9375001E-03
  2.3749999E-03 -6.9375001E-03
  2.4999999E-03 -6.9375001E-03
  2.6249997E-03 -6.9375001E-03
  2.7500000E-03 -6.9375001E-03
  2.8749998E-03 -6.9375001E-03
  3.0000000E-03 -6.9375001E-03
  3.1249998E-03 -6.9375001E-03
  3.2499998E-03 -6.9375001E-03
  3.3750001E-03 -6.9375001E-03
  3.4999999E-03 -6.9375001E-03
  3.6250001E-03 -6.9375001E-03
  3.7499999E-03 -6.9375001E-03
  3.8749997E-03 -6.9375001E-03
  4.0000002E-03 -6.9375001E-03
  4.1250000E-03 -6.9375001E-03
  4.2500002E-03 -6.9375001E-03
  4.3750000E-03 -6.9375001E-03
  4.4999998E-03 -6.9375001E-03
  4.6250001E-03 -6.9375001E-03
  4.7499998E-03 -6.9375001E-03
  4.8750001E-03 -6.9375001E-03
  4.9999999E-03 -6.9375001E-03
  5.1717171E-03 -6.8796873E-03
  5.3434349E-03 -6.8218750E-03
  5.5151521E-03 -6.7640627E-03
  5.6868694E-03 -6.7062494E-03
  5.8585862E-03 -6.6484371E-03
  6.0303039E-03 -6.5906248E-03
  6.2020211E-03 -6.5328125E-03
  6.3737384E-03 -6.4749997E-03
  6.5454561E-03 -6.4171874E-03
  6.7171734E-03 -6.3593751E-03
  6.8888906E-03 -6.3015628E-03
  7.0606079E-03 -6.2437495E-03
  7.2323256E-03 -6.1859372E-03
  7.4040424E-03 -6.1281249E-03
  7.5757597E-03 -6.0703121E-03
  7.7474769E-03 -6.0124998E-03
  7.9191942E-03 -5.9546875E-03
  8.0909124E-03 -5.8968752E-03
  8.2626296E-03 -5.8390624E-03
  8.4343469E-03 -5.7812501E-03
  8.6060641E-03 -5.7234378E-03
  8.7777814E-03 -5.6656245E-03
  8.9494986E-03 -5.6078122E-03
  9.1212159E-03 -5.5499999E-03
  9.2929332E-03 -5.4921876E-03
  9.4646504E-03 -5.4343748E-03
  9.6363677E-03 -5.3765625E-03
  9.8080849E-03 -5.3187502E-03
  9.9798031E-03 -5.2609369E-03
  1.0151519E-02 -5.2031246E-03
  1.0323237E-02 -5.1453123E-03
  1.0494954E-02 -5.0875000E-03
  1.0666672E-02 -5.0296872E-03
  1.0838389E-02 -4.9718749E-03
  1.1010107E-02 -4.9140626E-03
  1.1181824E-02 -4.8562498E-03
  1.1353541E-02 -4.7984375E-03
  1.1525258E-02 -4.7406247E-03
  1.1696977E-02 -4.6828124E-03
  1.1868694E-02 -4.6250001E-03
  1.3024081E-02 -4.9292282E-03
  1.4179471E-02 -5.2334568E-03
  1.5334859E-02 -5.5376850E-03
  1.6490249E-02 -5.8419136E-03
  1.7645638E-02 -6.1461418E-03
  1.8801028E-02 -6.4503704E-03
  1.9956417E-02 -6.7545986E-03
  2.1111805E-02 -7.0588272E-03
  2.2267193E-02 -7.3630558E-03
  2.3422584E-02 -7.6672840E-03
  2.4577972E-02 -7.9715122E-03
  2.5733361E-02 -8.2757408E-03
  2.6888750E-02 -8.5799694E-03
  2.8044140E-02 -8.8841980E-03
  2.9199528E-02 -9.1884257E-03
  3.0354917E-02 -9.4926544E-03
  3.1510308E-02 -9.7968830E-03
  3.2665696E-02 -1.0101111E-02
  3.3821084E-02 -1.0405340E-02
  3.4976475E-02 -1.0709568E-02
  3.6131863E-02 -1.1013796E-02
  3.7287250E-02 -1.1318025E-02
  3.8442638E-02 -1.1622254E-02
  3.9598029E-02 -1.1926482E-02
  4.0753417E-02 -1.2230709E-02
  4.1908808E-02 -1.2534939E-02
  4.3064199E-02 -1.2839166E-02
  4.4219583E-02 -1.3143395E-02
  4.5374975E-02 -1.3447624E-02
  4.6530366E-02 -1.3751852E-02
  4.7685750E-02 -1.4056080E-02
  4.8841141E-02 -1.4360310E-02
  4.9996532E-02 -1.4664537E-02
  5.1151916E-02 -1.4968766E-02
  5.2307308E-02 -1.5272994E-02
  5.3462699E-02 -1.5577223E-02
  5.4618087E-02 -1.5881451E-02
  5.5773478E-02 -1.6185679E-02
  5.6928862E-02 -1.6489908E-02
  5.8084253E-02 -1.6794136E-02
  5.9239645E-02 -1.7098365E-02
  6.0395028E-02 -1.7402593E-02
  6.1550420E-02 -1.7706823E-02
  6.2705807E-02 -1.8011050E-02
  6.3861199E-02 -1.8315278E-02
  6.5016590E-02 -1.8619508E-02
  6.6171981E-02 -1.8923735E-02
  6.7327365E-02 -1.9227963E-02
  6.8482757E-02 -1.9532191E-02
  6.9638148E-02 -1.9836420E-02
  7.0793532E-02 -2.0140650E-02
  7.1948923E-02 -2.0444877E-02
  7.3104307E-02 -2.0749105E-02
  7.4259698E-02 -2.1053333E-02
  7.5415090E-02 -2.1357562E-02
  7.6570474E-02 -2.1661792E-02
  7.7725865E-02 -2.1966018E-02
  7.8881256E-02 -2.2270247E-02
  8.0036648E-02 -2.2574477E-02
  8.1192032E-02 -2.2878703E-02
  8.2347423E-02 -2.3182932E-02
  8.3502814E-02 -2.3487162E-02
  8.4658198E-02 -2.3791390E-02
  8.5813589E-02 -2.4095619E-02
  8.6968981E-02 -2.4399847E-02
  8.8124372E-02 -2.4704074E-02
  8.9279756E-02 -2.5008304E-02
  9.0435147E-02 -2.5312534E-02
  9.1590539E-02 -2.5616759E-02
  9.2745923E-02 -2.5920989E-02
  0.0000000E+00 -6.7500002E-03
  1.2500001E-04 -6.7500002E-03
  2.5000001E-04 -6.7500002E-03
  3.7500000E-04 -6.7500002E-03
  5.0000002E-04 -6.7500002E-03
  6.2499999E-04 -6.7500002E-03
  7.5000001E-04 -6.7500002E-03
  8.7499997E-04 -6.7500002E-03
  1.0000000E-03 -6.7500002E-03
  1.1250000E-03 -6.7500002E-03
  1.2500000E-03 -6.7500002E-03
  1.3750000E-03 -6.7500002E-03
  1.5000000E-03 -6.7500002E-03
  1.6249999E-03 -6.7500002E-03
  1.7499999E-03 -6.7500002E-03
  1.8750000E-03 -6.7500002E-03
  2.0000001E-03 -6.7500002E-03
  2.1250001E-03 -6.7500002E-03
  2.2499999E-03 -6.7500002E-03
  2.3749999E-03 -6.7500002E-03
  2.4999999E-03 -6.7500002E-03
  2.6249997E-03 -6.7500002E-03
  2.7500000E-03 -6.7500002E-03
  2.8749998E-03 -6.7500002E-03
  3.0000000E-03 -6.7500002E-03
  3.1249998E-03 -6.7500002E-03
  3.2499998E-03 -6.7500002E-03
  3.3750001E-03 -6.7500002E-03
  3.4999999E-03 -6.7500002E-03
  3.6250001E-03 -6.7500002E-03
  3.7499999E-03 -6.7500002E-03
  3.8749997E-03 -6.7500002E-03
  4.0000002E-03 -6.7500002E-03
  4.1250000E-03 -6.7500002E-03
  4.2500002E-03 -6.7500002E-03
  4.3750000E-03 -6.7500002E-03
  4.4999998E-03 -6.7500002E-03
  4.6250001E-03 -6.7500002E-03
  4.7499998E-03 -6.7500002E-03
  4.8750001E-03 -6.7500002E-03
  4.9999999E-03 -6.7500002E-03
  5.1717171E-03 -6.6937497E-03
  5.3434349E-03 -6.6374997E-03
  5.5151521E-03 -6.5812496E-03
  5.6868694E-03 -6.5249996E-03
  5.8585862E-03 -6.4687501E-03
  6.0303039E-03 -6.4125000E-03
  6.2020211E-03 -6.3562500E-03
  6.3737384E-03 -6.3000000E-03
  6.5454561E-03 -6.2437495E-03
  6.7171734E-03 -6.1874995E-03
  6.8888906E-03 -6.1312499E-03
  7.0606079E-03 -6.0749999E-03
  7.2323256E-03 -6.0187499E-03
  7.4040424E-03 -5.9624999E-03
  7.5757597E-03 -5.9062499E-03
  7.7474769E-03 -5.8499998E-03
  7.9191942E-03 -5.7937503E-03
  8.0909124E-03 -5.7375003E-03
  8.2626296E-03 -5.6812498E-03
  8.4343469E-03 -5.6249998E-03
  8.6060641E-03 -5.5687497E-03
  8.7777814E-03 -5.5124997E-03
  8.9494986E-03 -5.4562497E-03
  9.1212159E-03 -5.4000001E-03
  9.2929332E-03 -5.3437501E-03
  9.4646504E-03 -5.2875001E-03
  9.6363677E-03 -5.2312496E-03
  9.8080849E-03 -5.1749996E-03
  9.9798031E-03 -5.1187496E-03
  1.0151519E-02 -5.0625000E-03
  1.0323237E-02 -5.0062500E-03
  1.0494954E-02 -4.9500000E-03
  1.0666672E-02 -4.8937500E-03
  1.0838389E-02 -4.8374999E-03
  1.1010107E-02 -4.7812499E-03
  1.1181824E-02 -4.7249999E-03
  1.1353541E-02 -4.6687499E-03
  1.1525258E-02 -4.6124998E-03
  1.1696977E-02 -4.5562498E-03
  1.1868694E-02 -4.4999998E-03
  1.3012539E-02 -4.7993497E-03
  1.4156385E-02 -5.0986991E-03
  1.5300231E-02 -5.3980490E-03
  1.6444078E-02 -5.6973984E-03
  1.7587924E-02 -5.9967488E-03
  1.8731769E-02 -6.2960982E-03
  1.9875616E-02 -6.5954481E-03
  2.1019461E-02 -6.8947980E-03
  2.2163307E-02 -7.1941474E-03
  2.3307154E-02 -7.4934973E-03
  2.4450997E-02 -7.7928468E-03
  2.5594844E-02 -8.0921967E-03
  2.6738690E-02 -8.3915461E-03
  2.7882537E-02 -8.6908964E-03
  2.9026384E-02 -8.9902459E-03
  3.0170228E-02 -9.2895962E-03
  3.1314075E-02 -9.5889457E-03
  3.2457922E-02 -9.8882951E-03
  3.3601768E-02 -1.0187645E-02
  3.4745615E-02 -1.0486995E-02
  3.5889458E-02 -1.0786345E-02
  3.7033305E-02 -1.1085695E-02
  3.8177151E-02 -1.1385043E-02
  3.9320998E-02 -1.1684394E-02
  4.0464845E-02 -1.1983744E-02
  4.1608691E-02 -1.2283093E-02
  4.2752530E-02 -1.2582443E-02
  4.3896377E-02 -1.2881792E-02
  4.5040224E-02 -1.3181143E-02
  4.6184070E-02 -1.3480493E-02
  4.7327917E-02 -1.3779842E-02
  4.8471764E-02 -1.4079192E-02
  4.9615610E-02 -1.4378541E-02
  5.0759457E-02 -1.4677892E-02
  5.1903304E-02 -1.4977242E-02
  5.3047150E-02 -1.5276590E-02
  5.4190993E-02 -1.5575941E-02
  5.5334840E-02 -1.5875291E-02
  5.6478687E-02 -1.6174641E-02
  5.7622533E-02 -1.6473990E-02
  5.8766376E-02 -1.6773339E-02
  5.9910223E-02 -1.7072689E-02
  6.1054070E-02 -1.7372040E-02
  6.2197916E-02 -1.7671390E-02
  6.3341767E-02 -1.7970739E-02
  6.4485602E-02 -1.8270088E-02
  6.5629452E-02 -1.8569438E-02
  6.6773295E-02 -1.8868787E-02
  6.7917146E-02 -1.9168137E-02
  6.9060989E-02 -1.9467486E-02
  7.0204839E-02 -1.9766837E-02
  7.1348682E-02 -2.0066187E-02
  7.2492532E-02 -2.0365536E-02
  7.3636375E-02 -2.0664888E-02
  7.4780218E-02 -2.0964235E-02
  7.5924069E-02 -2.1263584E-02
  7.7067912E-02 -2.1562936E-02
  7.8211762E-02 -2.1862285E-02
  7.9355605E-02 -2.2161637E-02
  8.0499448E-02 -2.2460984E-02
  8.1643291E-02 -2.2760333E-02
  8.2787141E-02 -2.3059685E-02
  8.3930984E-02 -2.3359034E-02
  8.5074835E-02 -2.3658386E-02
  8.6218677E-02 -2.3957733E-02
  8.7362528E-02 -2.4257082E-02
  8.8506371E-02 -2.4556434E-02
  8.9650221E-02 -2.4855783E-02
  9.0794064E-02 -2.5155131E-02
  9.1937914E-02 -2.5454482E-02
  0.0000000E+00 -6.5624998E-03
  1.2500001E-04 -6.5624998E-03
  2.5000001E-04 -6.5624998E-03
  3.7500000E-04 -6.5624998E-03
  5.0000002E-04 -6.5624998E-03
  6.2499999E-04 -6.5624998E-03
  7.5000001E-04 -6.5624998E-03
  8.7499997E-04 -6.5624998E-03
  1.0000000E-03 -6.5624998E-03
  1.1250000E-03 -6.5624998E-03
  1.2500000E-03 -6.5624998E-03
  1.3750000E-03 -6.5624998E-03
  1.5000000E-03 -6.5624998E-03
  1.6249999E-03 -6.5624998E-03
  1.7499999E-03 -6.5624998E-03
  1.8750000E-03 -6.5624998E-03
  2.0000001E-03 -6.5624998E-03
  2.1250001E-03 -6.5624998E-03
  2.2499999E-03 -6.5624998E-03
  2.3749999E-03 -6.5624998E-03
  2.4999999E-03 -6.5624998E-03
  2.6249997E-03 -6.5624998E-03
  2.7500000E-03 -6.5624998E-03
  2.8749998E-03 -6.5624998E-03
  3.0000000E-03 -6.5624998E-03
  3.1249998E-03 -6.5624998E-03
  3.2499998E-03 -6.5624998E-03
  3.3750001E-03 -6.5624998E-03
  3.4999999E-03 -6.5624998E-03
  3.6250001E-03 -6.5624998E-03
  3.7499999E-03 -6.5624998E-03
  3.8749997E-03 -6.5624998E-03
  4.0000002E-03 -6.5624998E-03
  4.1250000E-03 -6.5624998E-03
  4.2500002E-03 -6.5624998E-03
  4.3750000E-03 -6.5624998E-03
  4.4999998E-03 -6.5624998E-03
  4.6250001E-03 -6.5624998E-03
  4.7499998E-03 -6.5624998E-03
  4.8750001E-03 -6.5624998E-03
  4.9999999E-03 -6.5624998E-03
  5.1717171E-03 -6.5078125E-03
  5.3434349E-03 -6.4531248E-03
  5.5151521E-03 -6.3984375E-03
  5.6868694E-03 -6.3437498E-03
  5.8585862E-03 -6.2890626E-03
  6.0303039E-03 -6.2343753E-03
  6.2020211E-03 -6.1796871E-03
  6.3737384E-03 -6.1249998E-03
  6.5454561E-03 -6.0703121E-03
  6.7171734E-03 -6.0156249E-03
  6.8888906E-03 -5.9609376E-03
  7.0606079E-03 -5.9062499E-03
  7.2323256E-03 -5.8515626E-03
  7.4040424E-03 -5.7968744E-03
  7.5757597E-03 -5.7421871E-03
  7.7474769E-03 -5.6874999E-03
  7.9191942E-03 -5.6328122E-03
  8.0909124E-03 -5.5781249E-03
  8.2626296E-03 -5.5234372E-03
  8.4343469E-03 -5.4687499E-03
  8.6060641E-03 -5.4140626E-03
  8.7777814E-03 -5.3593749E-03
  8.9494986E-03 -5.3046877E-03
  9.1212159E-03 -5.2499995E-03
  9.2929332E-03 -5.1953122E-03
  9.4646504E-03 -5.1406249E-03
  9.6363677E-03 -5.0859372E-03
  9.8080849E-03 -5.0312500E-03
  9.9798031E-03 -4.9765622E-03
  1.0151519E-02 -4.9218750E-03
  1.0323237E-02 -4.8671872E-03
  1.0494954E-02 -4.8125000E-03
  1.0666672E-02 -4.7578127E-03
  1.0838389E-02 -4.7031250E-03
  1.1010107E-02 -4.6484373E-03
  1.1181824E-02 -4.5937500E-03
  1.1353541E-02 -4.5390623E-03
  1.1525258E-02 -4.4843750E-03
  1.1696977E-02 -4.4296873E-03
  1.1868694E-02 -4.3750000E-03
  1.3000996E-02 -4.6694712E-03
  1.4133300E-02 -4.9639419E-03
  1.5265602E-02 -5.2584135E-03
  1.6397905E-02 -5.5528842E-03
  1.7530208E-02 -5.8473558E-03
  1.8662510E-02 -6.1418265E-03
  1.9794814E-02 -6.4362977E-03
  2.0927116E-02 -6.7307684E-03
  2.2059418E-02 -7.0252400E-03
  2.3191724E-02 -7.3197107E-03
  2.4324026E-02 -7.6141818E-03
  2.5456328E-02 -7.9086525E-03
  2.6588632E-02 -8.2031246E-03
  2.7720936E-02 -8.4975949E-03
  2.8853238E-02 -8.7920660E-03
  2.9985540E-02 -9.0865372E-03
  3.1117843E-02 -9.3810083E-03
  3.2250147E-02 -9.6754795E-03
  3.3382449E-02 -9.9699507E-03
  3.4514751E-02 -1.0264422E-02
  3.5647057E-02 -1.0558892E-02
  3.6779359E-02 -1.0853364E-02
  3.7911661E-02 -1.1147835E-02
  3.9043963E-02 -1.1442306E-02
  4.0176265E-02 -1.1736777E-02
  4.1308571E-02 -1.2031249E-02
  4.2440873E-02 -1.2325719E-02
  4.3573175E-02 -1.2620190E-02
  4.4705480E-02 -1.2914661E-02
  4.5837782E-02 -1.3209132E-02
  4.6970084E-02 -1.3503604E-02
  4.8102386E-02 -1.3798075E-02
  4.9234688E-02 -1.4092545E-02
  5.0366990E-02 -1.4387017E-02
  5.1499292E-02 -1.4681488E-02
  5.2631598E-02 -1.4975959E-02
  5.3763904E-02 -1.5270430E-02
  5.4896206E-02 -1.5564902E-02
  5.6028508E-02 -1.5859373E-02
  5.7160810E-02 -1.6153842E-02
  5.8293112E-02 -1.6448313E-02
  5.9425414E-02 -1.6742786E-02
  6.0557716E-02 -1.7037256E-02
  6.1690025E-02 -1.7331727E-02
  6.2822327E-02 -1.7626198E-02
  6.3954629E-02 -1.7920671E-02
  6.5086931E-02 -1.8215140E-02
  6.6219233E-02 -1.8509611E-02
  6.7351535E-02 -1.8804083E-02
  6.8483837E-02 -1.9098554E-02
  6.9616146E-02 -1.9393025E-02
  7.0748448E-02 -1.9687496E-02
  7.1880750E-02 -1.9981967E-02
  7.3013052E-02 -2.0276438E-02
  7.4145354E-02 -2.0570910E-02
  7.5277656E-02 -2.0865381E-02
  7.6409958E-02 -2.1159852E-02
  7.7542268E-02 -2.1454321E-02
  7.8674570E-02 -2.1748794E-02
  7.9806872E-02 -2.2043265E-02
  8.0939166E-02 -2.2337737E-02
  8.2071476E-02 -2.2632208E-02
  8.3203778E-02 -2.2926679E-02
  8.4336080E-02 -2.3221148E-02
  8.5468389E-02 -2.3515619E-02
  8.6600684E-02 -2.3810090E-02
  8.7732993E-02 -2.4104564E-02
  8.8865288E-02 -2.4399035E-02
  8.9997597E-02 -2.4693506E-02
  9.1129899E-02 -2.4987975E-02
  0.0000000E+00 -6.3749999E-03
  1.2500001E-04 -6.3749999E-03
  2.5000001E-04 -6.3749999E-03
  3.7500000E-04 -6.3749999E-03
  5.0000002E-04 -6.3749999E-03
  6.2499999E-04 -6.3749999E-03
  7.5000001E-04 -6.3749999E-03
  8.7499997E-04 -6.3749999E-03
  1.0000000E-03 -6.3749999E-03
  1.1250000E-03 -6.3749999E-03
  1.2500000E-03 -6.3749999E-03
  1.3750000E-03 -6.3749999E-03
  1.5000000E-03 -6.3749999E-03
  1.6249999E-03 -6.3749999E-03
  1.7499999E-03 -6.3749999E-03
  1.8750000E-03 -6.3749999E-03
  2.0000001E-03 -6.3749999E-03
  2.1250001E-03 -6.3749999E-03
  2.2499999E-03 -6.3749999E-03
  2.3749999E-03 -6.3749999E-03
  2.4999999E-03 -6.3749999E-03
  2.6249997E-03 -6.3749999E-03
  2.7500000E-03 -6.3749999E-03
  2.8749998E-03 -6.3749999E-03
  3.0000000E-03 -6.3749999E-03
  3.1249998E-03 -6.3749999E-03
  3.2499998E-03 -6.3749999E-03
  3.3750001E-03 -6.3749999E-03
  3.4999999E-03 -6.3749999E-03
  3.6250001E-03 -6.3749999E-03
  3.7499999E-03 -6.3749999E-03
  3.8749997E-03 -6.3749999E-03
  4.0000002E-03 -6.3749999E-03
  4.1250000E-03 -6.3749999E-03
  4.2500002E-03 -6.3749999E-03
  4.3750000E-03 -6.3749999E-03
  4.4999998E-03 -6.3749999E-03
  4.6250001E-03 -6.3749999E-03
  4.7499998E-03 -6.3749999E-03
  4.8750001E-03 -6.3749999E-03
  4.9999999E-03 -6.3749999E-03
  5.1717171E-03 -6.3218749E-03
  5.3434349E-03 -6.2687495E-03
  5.5151521E-03 -6.2156245E-03
  5.6868694E-03 -6.1624995E-03
  5.8585862E-03 -6.1093746E-03
  6.0303039E-03 -6.0562496E-03
  6.2020211E-03 -6.0031246E-03
  6.3737384E-03 -5.9500001E-03
  6.5454561E-03 -5.8968752E-03
  6.7171734E-03 -5.8437502E-03
  6.8888906E-03 -5.7906252E-03
  7.0606079E-03 -5.7375003E-03
  7.2323256E-03 -5.6843748E-03
  7.4040424E-03 -5.6312499E-03
  7.5757597E-03 -5.5781249E-03
  7.7474769E-03 -5.5249999E-03
  7.9191942E-03 -5.4718750E-03
  8.0909124E-03 -5.4187500E-03